 Q-Chem 6.0, Q-Chem, Inc., Pleasanton, CA (2022)
 Q-Chem 6.0.2 for Intel X86 EM64T Linux

User input:
--------------------------------------------------------------
$molecule
-2 6
N   -2.2863981    1.6152600   -1.7120981
C   -4.3645343   -0.7888758    1.4393354
H   -4.3072067   -0.2632130    2.4081020
N   -3.1885570   -1.6220345    1.2497962
H   -3.4565155   -2.5964751    1.0880837
C   -5.6024486   -1.7395024    1.4887238
O   -6.7023981   -1.1861555    1.7268258
C   -1.9251439   -1.2155110    1.0729573
O   -1.6280475    0.0181145    1.2797626
C   -2.3518337    2.6308246   -0.8554163
C   -3.4011023    3.6924711   -0.9953464
H   -3.8594486    3.7176773   -1.9906772
H   -4.1908265    3.5219460   -0.2463334
H   -2.9356760    4.6646879   -0.7798916
C   -0.9550968   -2.2111787    0.6820328
H   -1.2610408   -3.2572221    0.7122740
C    0.3262804   -1.9004237    0.2825764
C    1.3343188   -3.0158728    0.0542984
H    0.8141724   -3.9671697   -0.1226290
H    1.9340419   -3.1190061    0.9742269
C    2.2391305   -2.7224455   -1.1384440
O    1.8286057   -2.8422601   -2.3027521
N    3.4781461   -2.3182869   -0.8158303
H    3.7945948   -2.2773450    0.1547026
C    5.8232840   -1.6823312   -0.8701348
O    6.8535415   -1.3578130   -1.5076130
N    2.3143406    2.1377904    0.2060578
C    2.0331272    1.9680958    1.4950028
C    3.1034619    2.1138135    2.5390200
H    2.6308084    2.0635239    3.5273596
H    3.8392420    1.2984744    2.4530360
H    3.6421235    3.0675854    2.4416500
C    3.6251352    2.3668156   -0.3961002
H    3.4622741    3.0853666   -1.2140425
H    4.2638654    2.8490924    0.3544975
C    4.2823301    1.0843052   -0.9139536
H    5.2941905    1.3520870   -1.2667095
H    4.4254977    0.3939644   -0.0673931
C    3.5021366    0.3931652   -2.0368529
H    2.5278618    0.0709348   -1.6435424
H    3.2853365    1.1341987   -2.8272110
C    4.2126509   -0.8006159   -2.6815138
H    3.5708612   -1.1799712   -3.4911325
H    5.1690718   -0.4907156   -3.1323681
C    4.5492128   -1.9668398   -1.7315229
H    4.7928718   -2.8405713   -2.3644831
C   -4.6295372    0.7636341   -2.1838979
H   -5.2127454    1.6244583   -1.8159170
H   -5.1806264    0.3801286   -3.0588548
C   -3.2784046    1.2454008   -2.7307268
H   -3.4242782    2.0970589   -3.4124105
H   -2.7878385    0.4456273   -3.2991814
C   -4.5625771   -0.3151840   -1.0871046
H   -3.6800270   -0.9556282   -1.2498071
H   -5.4417940   -0.9740008   -1.1809672
C   -4.5357530    0.2670043    0.3317935
H   -3.7322947    1.0067313    0.4260586
H   -5.4871973    0.7851392    0.5310797
O   -5.3835563   -2.9645532    1.2671358
O    5.7033059   -1.8088449    0.3832678
O    0.7900407   -0.6995441    0.0987761
Fe   -0.2387848    1.0134495    0.1387715
O   -1.2848063    0.7048848   -1.5174298
O   -1.5045683    2.6872379    0.0955322
O    1.2845737    1.9909671   -0.6733574
O    0.8349407    1.6646929    1.8204784
$end

$rem
BASIS  =  gen
DFT_D  =  D3_BJ
GUI  =  2
JOB_TYPE  =  Optimization
METHOD  =  B3LYP
SCF_CONVERGENCE  =  8
SOLVENT_METHOD  =  PCM
$end

$pcm
THEORY  CPCM
$end

$solvent
DIELECTRIC  78.39
$end

$van_der_waals
26   2.44
$end

!----------------------------------------------------------------------
! Basis Set Exchange
! Basis set: cc-pVDZ
!----------------------------------------------------------------------

$rem
BASIS GEN
PURECART 11
$end

$basis
H     0
S   4   1.00
1.301000D+01           1.968500D-02
1.962000D+00           1.379770D-01
4.446000D-01           4.781480D-01
1.220000D-01           5.012400D-01
S   1   1.00
1.220000D-01           1.000000D+00
P   1   1.00
7.270000D-01           1.0000000
****
C     0
S   9   1.00
6.665000D+03           6.920000D-04
1.000000D+03           5.329000D-03
2.280000D+02           2.707700D-02
6.471000D+01           1.017180D-01
2.106000D+01           2.747400D-01
7.495000D+00           4.485640D-01
2.797000D+00           2.850740D-01
5.215000D-01           1.520400D-02
1.596000D-01          -3.191000D-03
S   9   1.00
6.665000D+03          -1.460000D-04
1.000000D+03          -1.154000D-03
2.280000D+02          -5.725000D-03
6.471000D+01          -2.331200D-02
2.106000D+01          -6.395500D-02
7.495000D+00          -1.499810D-01
2.797000D+00          -1.272620D-01
5.215000D-01           5.445290D-01
1.596000D-01           5.804960D-01
S   1   1.00
1.596000D-01           1.000000D+00
P   4   1.00
9.439000D+00           3.810900D-02
2.002000D+00           2.094800D-01
5.456000D-01           5.085570D-01
1.517000D-01           4.688420D-01
P   1   1.00
1.517000D-01           1.000000D+00
D   1   1.00
5.500000D-01           1.0000000
****
N     0
S   9   1.00
9.046000D+03           7.000000D-04
1.357000D+03           5.389000D-03
3.093000D+02           2.740600D-02
8.773000D+01           1.032070D-01
2.856000D+01           2.787230D-01
1.021000D+01           4.485400D-01
3.838000D+00           2.782380D-01
7.466000D-01           1.544000D-02
2.248000D-01          -2.864000D-03
S   9   1.00
9.046000D+03          -1.530000D-04
1.357000D+03          -1.208000D-03
3.093000D+02          -5.992000D-03
8.773000D+01          -2.454400D-02
2.856000D+01          -6.745900D-02
1.021000D+01          -1.580780D-01
3.838000D+00          -1.218310D-01
7.466000D-01           5.490030D-01
2.248000D-01           5.788150D-01
S   1   1.00
2.248000D-01           1.000000D+00
P   4   1.00
1.355000D+01           3.991900D-02
2.917000D+00           2.171690D-01
7.973000D-01           5.103190D-01
2.185000D-01           4.622140D-01
P   1   1.00
2.185000D-01           1.000000D+00
D   1   1.00
8.170000D-01           1.0000000
****
O     0
S   9   1.00
1.172000D+04           7.100000D-04
1.759000D+03           5.470000D-03
4.008000D+02           2.783700D-02
1.137000D+02           1.048000D-01
3.703000D+01           2.830620D-01
1.327000D+01           4.487190D-01
5.025000D+00           2.709520D-01
1.013000D+00           1.545800D-02
3.023000D-01          -2.585000D-03
S   9   1.00
1.172000D+04          -1.600000D-04
1.759000D+03          -1.263000D-03
4.008000D+02          -6.267000D-03
1.137000D+02          -2.571600D-02
3.703000D+01          -7.092400D-02
1.327000D+01          -1.654110D-01
5.025000D+00          -1.169550D-01
1.013000D+00           5.573680D-01
3.023000D-01           5.727590D-01
S   1   1.00
3.023000D-01           1.000000D+00
P   4   1.00
1.770000D+01           4.301800D-02
3.854000D+00           2.289130D-01
1.046000D+00           5.087280D-01
2.753000D-01           4.605310D-01
P   1   1.00
2.753000D-01           1.000000D+00
D   1   1.00
1.185000D+00           1.0000000
****
Fe     0
S   20   1.00
4.316265D+06           8.048803D-06
6.463424D+05           6.258306D-05
1.470897D+05           3.290239D-04
4.166152D+04           1.387355D-03
1.359077D+04           5.023256D-03
4.905750D+03           1.610140D-02
1.912746D+03           4.590034D-02
7.926043D+02           1.136154D-01
3.448065D+02           2.283869D-01
1.558999D+02           3.221159D-01
7.223091D+01           2.383661D-01
3.272506D+01           7.404667D-02
1.566762D+01           9.214197D-02
7.503483D+00           9.339790D-02
3.312223D+00           1.573965D-02
1.558471D+00          -4.186682D-04
6.839140D-01           5.376318D-05
1.467570D-01          -3.816654D-05
7.058300D-02           4.319603D-05
3.144900D-02          -3.401019D-06
S   20   1.00
4.316265D+06          -4.155954D-06
6.463424D+05          -3.231401D-05
1.470897D+05          -1.699525D-04
4.166152D+04          -7.171369D-04
1.359077D+04          -2.603625D-03
4.905750D+03          -8.399109D-03
1.912746D+03          -2.434109D-02
7.926043D+02          -6.251948D-02
3.448065D+02          -1.365929D-01
1.558999D+02          -2.312707D-01
7.223091D+01          -2.383734D-01
3.272506D+01           3.123837D-02
1.566762D+01           5.086818D-01
7.503483D+00           4.987695D-01
3.312223D+00           9.033552D-02
1.558471D+00          -6.005337D-03
6.839140D-01           2.312454D-04
1.467570D-01          -5.643680D-04
7.058300D-02           4.992260D-04
3.144900D-02          -1.015293D-04
S   20   1.00
4.316265D+06           9.532178D-07
6.463424D+05           7.414605D-06
1.470897D+05           3.898393D-05
4.166152D+04           1.647152D-04
1.359077D+04           5.985980D-04
4.905750D+03           1.942390D-03
1.912746D+03           5.687237D-03
7.926043D+02           1.501329D-02
3.448065D+02           3.452455D-02
1.558999D+02           6.495820D-02
7.223091D+01           7.716194D-02
3.272506D+01          -1.873411D-02
1.566762D+01          -3.009185D-01
7.503483D+00          -4.554661D-01
3.312223D+00           1.286463D-01
1.558471D+00           7.183316D-01
6.839140D-01           4.051743D-01
1.467570D-01           2.168227D-02
7.058300D-02          -8.343566D-03
3.144900D-02           3.658979D-03
S   20   1.00
4.316265D+06          -2.063008D-07
6.463424D+05          -1.604169D-06
1.470897D+05          -8.438437D-06
4.166152D+04          -3.563151D-05
1.359077D+04          -1.295998D-04
4.905750D+03          -4.201534D-04
1.912746D+03          -1.231954D-03
7.926043D+02          -3.248922D-03
3.448065D+02          -7.493717D-03
1.558999D+02          -1.410102D-02
7.223091D+01          -1.691600D-02
3.272506D+01           4.218996D-03
1.566762D+01           6.833810D-02
7.503483D+00           1.098201D-01
3.312223D+00          -4.009005D-02
1.558471D+00          -2.174739D-01
6.839140D-01          -2.465135D-01
1.467570D-01           2.731435D-01
7.058300D-02           5.748321D-01
3.144900D-02           3.012713D-01

   20   -3128.6693051603      5.48e-09  Convergence criterion met
 Total energy in the final basis set =    -3128.6693051603
   17   -3128.6693066879      3.48e-09  Convergence criterion met
 Total energy in the final basis set =    -3128.6693066879

                    Orbital Energies (a.u.)
 --------------------------------------------------------------

 Alpha MOs
 -- Occupied --
******** -30.1423 -25.9962 -25.9939 -25.9923 -19.1402 -19.1357 -19.1341
-19.1338 -19.1227 -19.1215 -19.0917 -19.0637 -19.0629 -19.0566 -19.0562
-14.4146 -14.4120 -14.3374 -14.3287 -10.2908 -10.2897 -10.2847 -10.2719
-10.2515 -10.2499 -10.2490 -10.2243 -10.2209 -10.2022 -10.1982 -10.1941
-10.1936 -10.1857 -10.1836 -10.1745 -10.1738 -10.1686 -10.1653 -10.1634
-10.1605  -3.6248  -2.4024  -2.3985  -2.3946  -1.0890  -1.0867  -1.0350
 -1.0188  -1.0166  -1.0148  -1.0086  -1.0032  -1.0015  -0.9217  -0.9181
 -0.9063  -0.8986  -0.8609  -0.8571  -0.7927  -0.7893  -0.7734  -0.7573
 -0.7470  -0.7321  -0.7238  -0.7142  -0.6913  -0.6780  -0.6412  -0.6331
 -0.5993  -0.5861  -0.5672  -0.5582  -0.5492  -0.5432  -0.5379  -0.5257
 -0.5149  -0.5116  -0.5085  -0.5023  -0.4988  -0.4888  -0.4848  -0.4765
 -0.4720  -0.4691  -0.4644  -0.4570  -0.4495  -0.4470  -0.4416  -0.4401
 -0.4335  -0.4319  -0.4279  -0.4246  -0.4210  -0.4187  -0.4170  -0.4161
 -0.4105  -0.4067  -0.4052  -0.4017  -0.4010  -0.3969  -0.3946  -0.3891
 -0.3842  -0.3812  -0.3799  -0.3798  -0.3790  -0.3746  -0.3682  -0.3669
 -0.3625  -0.3582  -0.3560  -0.3520  -0.3465  -0.3437  -0.3330  -0.3285
 -0.3249  -0.3224  -0.3216  -0.3175  -0.3143  -0.3088  -0.3071  -0.2979
 -0.2948  -0.2788  -0.2603  -0.2445  -0.2432  -0.2410  -0.2363  -0.2290
 -0.2257  -0.2217  -0.2200  -0.2136  -0.2122  -0.2112  -0.2100  -0.2073

 Beta MOs
 -- Occupied --
******** -30.0496 -25.9182 -25.9167 -25.9158 -19.1345 -19.1310 -19.1307
-19.1299 -19.1186 -19.1186 -19.0917 -19.0637 -19.0629 -19.0566 -19.0562
-14.4143 -14.4116 -14.3370 -14.3287 -10.2908 -10.2897 -10.2847 -10.2719
-10.2517 -10.2499 -10.2490 -10.2242 -10.2208 -10.2022 -10.1982 -10.1940
-10.1935 -10.1855 -10.1836 -10.1745 -10.1738 -10.1685 -10.1653 -10.1634
-10.1601  -3.4088  -2.1729  -2.1705  -2.1695  -1.0833  -1.0809  -1.0303
 -1.0175  -1.0096  -1.0078  -1.0042  -1.0023  -1.0003  -0.9210  -0.9181
 -0.9052  -0.8986  -0.8553  -0.8513  -0.7921  -0.7888  -0.7720  -0.7566
 -0.7462  -0.7308  -0.7226  -0.7132  -0.6908  -0.6775  -0.6403  -0.6324
 -0.5978  -0.5847  -0.5648  -0.5554  -0.5464  -0.5359  -0.5341  -0.5177
 -0.5108  -0.5064  -0.5014  -0.4956  -0.4941  -0.4842  -0.4820  -0.4724
 -0.4676  -0.4666  -0.4623  -0.4495  -0.4453  -0.4390  -0.4382  -0.4377
 -0.4323  -0.4259  -0.4200  -0.4143  -0.4109  -0.4096  -0.4073  -0.4019
 -0.4002  -0.3970  -0.3968  -0.3943  -0.3900  -0.3856  -0.3823  -0.3799
 -0.3773  -0.3687  -0.3676  -0.3639  -0.3579  -0.3566  -0.3538  -0.3505
 -0.3461  -0.3326  -0.3270  -0.3245  -0.3226  -0.3184  -0.3180  -0.3150
 -0.3084  -0.3074  -0.3045  -0.2965  -0.2914  -0.2873  -0.2633  -0.2588
 -0.2429  -0.2408  -0.2295  -0.2258  -0.2215  -0.2200  -0.2123  -0.2120
 -0.2107  -0.2090  -0.2070

          Ground-State Mulliken Net Atomic Charges

     Atom                 Charge (a.u.)    Spin (a.u.)
  --------------------------------------------------------
      1 N                    -0.022204       0.014402
      2 C                     0.003121      -0.000683
      3 H                    -0.002520       0.000877
      4 N                    -0.080566       0.013762
      5 H                     0.082179       0.000465
      6 C                     0.096042      -0.000031
      7 O                    -0.444172       0.000070
      8 C                     0.257064       0.004110
      9 O                    -0.397893       0.077106
     10 C                     0.128425       0.001727
     11 C                     0.035352       0.003378
     12 H                     0.058569       0.000960
     13 H                     0.069517      -0.000106
     14 H                     0.059582       0.000213
     15 C                    -0.095126       0.033399
     16 H                    -0.020605      -0.000807
     17 C                     0.116181      -0.010449
     18 C                     0.082484       0.007843
     19 H                     0.024338       0.001624
     20 H                     0.047078      -0.000993
     21 C                     0.103948      -0.000277
     22 O                    -0.372858       0.000233
     23 N                    -0.085073      -0.000016
     24 H                     0.080648       0.000021
     25 C                     0.099766      -0.000007
     26 O                    -0.438630       0.000029
     27 N                    -0.021001       0.015899
     28 C                     0.140495       0.003757
     29 C                     0.020149       0.003293
     30 H                     0.049561       0.000256
     31 H                     0.075091       0.000826
     32 H                     0.072091      -0.000175
     33 C                     0.142864       0.001083
     34 H                     0.030862       0.000779
     35 H                     0.036255       0.001333
     36 C                    -0.026324       0.000702
     37 H                     0.003255       0.000418
     38 H                     0.012016      -0.000009
     39 C                    -0.039893       0.000265
     40 H                     0.069868       0.001672
     41 H                    -0.012292      -0.000001
     42 C                     0.050253       0.000338
     43 H                    -0.017292      -0.000008
     44 H                    -0.018312       0.000049
     45 C                    -0.003169      -0.000008
     46 H                    -0.000854      -0.000003
     47 C                    -0.015416       0.000942
     48 H                     0.013606       0.000071
     49 H                     0.015520       0.000483
     50 C                     0.129841       0.001339
     51 H                     0.048537       0.000871
     52 H                     0.041874       0.000541
     53 C                    -0.003524      -0.000033
     54 H                     0.008842      -0.000076
     55 H                     0.002805       0.000013
     56 C                     0.007805       0.000527
     57 H                     0.044470       0.000348
     58 H                    -0.007402       0.000106
     59 O                    -0.442417       0.000582
     60 O                    -0.440221       0.000003
     61 O                    -0.409980       0.116296
     62 Fe                    0.661337       4.168504
     63 O                    -0.432598       0.176122
     64 O                    -0.369756       0.087462
     65 O                    -0.428123       0.181046
     66 O                    -0.373470       0.087531
  --------------------------------------------------------
  Sum of atomic charges =    -2.000000

                    Cartesian Multipole Moments
 -----------------------------------------------------------------
    Charge (ESU x 10^10)
                -9.6064
    Dipole Moment (Debye)
         X      -2.5362      Y      16.7760      Z      -1.4250
       Tot      17.0263
    Quadrupole Moments (Debye-Ang)
        XX    -507.1236     XY      -7.7154     YY    -252.5089
        XZ      79.6952     YZ      -8.5696     ZZ    -251.2616

 Final energy is -3128.669306687911
	**  OPTIMIZATION CONVERGED  **

             Standard Nuclear Orientation (Angstroms)
    I     Atom           X                Y                Z
 ----------------------------------------------------------------
    1      N      -2.2862296459     1.6148837133    -1.7119485562
    2      C      -4.3647235483    -0.7885544529     1.4392738706
    3      H      -4.3071110899    -0.2628077124     2.4079572374
    4      N      -3.1886117239    -1.6218311468     1.2498978536
    5      H      -3.4568228448    -2.5962567697     1.0883671036
    6      C      -5.6025503012    -1.7394690520     1.4889118608
    7      O      -6.7026289956    -1.1863917934     1.7269678470
    8      C      -1.9251457433    -1.2154243883     1.0731415106
    9      O      -1.6281687843     0.0182027239     1.2799829883
   10      C      -2.3516823957     2.6306475747    -0.8555585298
   11      C      -3.4007650327     3.6924504356    -0.9957341891
   12      H      -3.8587263650     3.7179000909    -1.9912430449
   13      H      -4.1907428438     3.5221694519    -0.2469329171
   14      H      -2.9351652178     4.6645361791    -0.7800269369
   15      C      -0.9550981116    -2.2110609185     0.6823622920
   16      H      -1.2611111723    -3.2570762036     0.7126952884
   17      C       0.3263589846    -1.9003960405     0.2829386914
   18      C       1.3344848020    -3.0158367893     0.0546666057
   19      H       0.8143584593    -3.9672309914    -0.1218533536
   20      H       1.9342222065    -3.1188167083     0.9745943770
   21      C       2.2391122587    -2.7222093611    -1.1381184483
   22      O       1.8283821672    -2.8417109812    -2.3023782588
   23      N       3.4782279732    -2.3181921552    -0.8157056000
   24      H       3.7952956993    -2.2773009974     0.1546605631
   25      C       5.8234534492    -1.6823935933    -0.8708972799
   26      O       6.8535038067    -1.3578497301    -1.5086393197
   27      N       2.3142847384     2.1376794929     0.2062547477
   28      C       2.0329564180     1.9678738241     1.4951266439
   29      C       3.1033043799     2.1131853467     2.5393409518
   30      H       2.6303299980     2.0625110646     3.5275055814
   31      H       3.8389430685     1.2977546320     2.4531885330
   32      H       3.6418573549     3.0670439084     2.4424208562
   33      C       3.6251021754     2.3670321773    -0.3958053081
   34      H       3.4620258557     3.0856987816    -1.2136203625
   35      H       4.2639513534     2.8493135184     0.3546577968
   36      C       4.2823698794     1.0845735780    -0.9140598610
   37      H       5.2941061053     1.3525139817    -1.2670562953
   38      H       4.4257932853     0.3943115283    -0.0674873905
   39      C       3.5020373417     0.3934827048    -2.0369821896
   40      H       2.5277130842     0.0711832425    -1.6438087639
   41      H       3.2852559018     1.1346325270    -2.8272104223
   42      C       4.2123797470    -0.8003664079    -2.6816746655
   43      H       3.5703468642    -1.1797273545    -3.4911247260
   44      H       5.1687803619    -0.4907873270    -3.1328016916
   45      C       4.5490005298    -1.9665701747    -1.7318359874
   46      H       4.7924619645    -2.8404049302    -2.3647581679
   47      C      -4.6294351125     0.7635423894    -2.1839948319
   48      H      -5.2124012233     1.6245571346    -1.8161611741
   49      H      -5.1804161877     0.3800388418    -3.0590293267
   50      C      -3.2781360052     1.2449727729    -2.7307202668
   51      H      -3.4239138841     2.0966941232    -3.4123590467
   52      H      -2.7876641687     0.4451540370    -3.2991611153
   53      C      -4.5628587924    -0.3152656836    -1.0872304148
   54      H      -3.6804353806    -0.9559469497    -1.2497433575
   55      H      -5.4422017782    -0.9739038823    -1.1811090104
   56      C      -4.5359233176     0.2669895668     0.3315420958
   57      H      -3.7323392816     1.0065878147     0.4257449548
   58      H      -5.4872913900     0.7853311896     0.5308087448
   59      O      -5.3834602885    -2.9644846997     1.2674418891
   60      O       5.7040926850    -1.8091801657     0.3825287614
   61      O       0.7901232005    -0.6996135930     0.0990551534
   62      Fe     -0.2388176072     1.0133859004     0.1389300703
   63      O      -1.2846750319     0.7046454294    -1.5174266785
   64      O      -1.5045002849     2.6870371216     0.0954761251
   65      O       1.2847748659     1.9908589608    -0.6732766422
   66      O       0.8346761853     1.6647037936     1.8206020358
 ----------------------------------------------------------------

 Total job time:  4574.44s(wall), 73166.05s(cpu)
        *  Thank you very much for using Q-Chem.  Have a nice day.  *
