 Q-Chem 6.0, Q-Chem, Inc., Pleasanton, CA (2022)
 Q-Chem 6.0.2 for Intel X86 EM64T Linux

User input:
--------------------------------------------------------------
$molecule
-2 6
N   -2.1260228   -2.2722362    1.1477089
C   -4.0967826    2.4636873   -0.1834367
H   -4.8341795    3.0392528   -0.7682108
N   -2.8972312    2.2491310   -0.9745165
H   -2.0565259    2.5483147   -0.4753836
C   -3.6919935    3.3085441    1.0634481
O   -4.6385612    3.7008471    1.7877154
C   -2.8210677    1.6387211   -2.1685515
O   -3.8036237    1.2430891   -2.8100100
C   -1.9374313   -3.1047481    0.1279323
C   -2.9741386   -4.1346676   -0.2213915
H   -3.2999388   -4.7001565    0.6635503
H   -3.8623072   -3.6581728   -0.6654198
H   -2.5396948   -4.8251802   -0.9543278
C   -1.3907357    1.4843845   -2.7109809
H   -1.0552256    2.4610560   -3.0920101
H   -1.4390900    0.7728594   -3.5453977
C   -0.4468037    0.9645429   -1.6437095
C    0.4084867    1.8527023   -1.0128988
H    0.4438852    2.8818585   -1.3702588
C    1.2930259    1.4719364    0.0522416
O    1.2838084    0.3054737    0.5702017
N    2.1224926    2.4167858    0.5648121
H    2.0792469    3.2866818    0.0428955
C    4.4563785    1.5603899    0.0847579
O    5.6623053    1.5633005    0.4455620
N    2.8365537   -2.3071600    0.8592760
C    2.9728518   -2.1482287   -0.4552444
C    4.3183246   -2.0954857   -1.1082745
H    4.2557056   -2.6177151   -2.0736180
H    4.5465359   -1.0308105   -1.2944107
H    5.1167752   -2.5385438   -0.5013997
C    3.8953979   -2.2921350    1.8750032
H    3.4512803   -2.7766078    2.7555589
H    4.7235975   -2.9249027    1.5259693
C    4.3936995   -0.8781619    2.1918385
H    5.2190850   -0.9713599    2.9206427
H    4.8517598   -0.4552757    1.2886700
C    3.3033480    0.0590172    2.7414199
H    2.3423863   -0.1981155    2.2887350
H    3.2040244   -0.1203801    3.8273850
C    3.5554349    1.5623503    2.5389226
H    2.8532031    2.1218760    3.1805457
H    4.5690596    1.8085741    2.8963998
C    3.4689860    2.1920522    1.1250683
H    3.8470652    3.2162809    1.2688817
C   -4.3521273   -1.1581549    1.2926500
H   -4.7141457   -1.6041029    0.3495547
H   -5.2287312   -1.0913533    1.9613300
C   -3.3457743   -2.1145816    1.9393058
H   -3.7916302   -3.1068915    2.0890086
H   -3.0141030   -1.7408409    2.9183656
C   -3.7817968    0.2304209    1.0101556
H   -2.8652478    0.1200228    0.4115054
H   -3.4720710    0.7021956    1.9595284
C   -4.7526161    1.1422257    0.2616434
H   -5.1350145    0.6183194   -0.6291987
H   -5.6152901    1.4029940    0.8953623
O   -2.4539076    3.4933037    1.2436653
O    3.9796063    1.1263840   -0.9965059
O   -0.5640079   -0.3003728   -1.3901905
Fe    0.3245055   -1.4013242    0.0640597
O   -1.1445810   -1.3551078    1.3906814
O   -0.8557145   -3.0106973   -0.5422092
O    1.5598810   -2.3048871    1.3428435
O    1.9144397   -2.0006871   -1.1602503
$end

$rem
BASIS  =  gen
CIS_N_ROOTS  =  100
EXCHANGE  =  CAM-B3LYP
GUI  =  2
JOB_TYPE  =  SP
SCF_CONVERGENCE  =  8
SOLVENT_METHOD  =  PCM
UNRESTRICTED  =  1
BASIS GEN
PURECART 11
$end

$pcm
THEORY  CPCM
$end

$solvent
DIELECTRIC  78.39
$end

$van_der_waals
26   2.44
$end

!----------------------------------------------------------------------
! Basis Set Exchange
! Basis set: aug-cc-pVDZ
!----------------------------------------------------------------------

$basis
H     0
S   4   1.00
1.301000D+01           1.968500D-02
1.962000D+00           1.379770D-01
4.446000D-01           4.781480D-01
1.220000D-01           5.012400D-01
S   1   1.00
1.220000D-01           1.000000D+00
S   1   1.00
0.0297400              1.0000000
P   1   1.00
7.270000D-01           1.0000000
P   1   1.00
0.1410000              1.0000000
****
C     0
S   9   1.00
6.665000D+03           6.920000D-04
1.000000D+03           5.329000D-03
2.280000D+02           2.707700D-02
6.471000D+01           1.017180D-01
2.106000D+01           2.747400D-01
7.495000D+00           4.485640D-01
2.797000D+00           2.850740D-01
5.215000D-01           1.520400D-02
1.596000D-01          -3.191000D-03
S   9   1.00
6.665000D+03          -1.460000D-04
1.000000D+03          -1.154000D-03
2.280000D+02          -5.725000D-03
6.471000D+01          -2.331200D-02
2.106000D+01          -6.395500D-02
7.495000D+00          -1.499810D-01
2.797000D+00          -1.272620D-01
5.215000D-01           5.445290D-01
1.596000D-01           5.804960D-01
S   1   1.00
1.596000D-01           1.000000D+00
S   1   1.00
0.0469000              1.0000000
P   4   1.00
9.439000D+00           3.810900D-02
2.002000D+00           2.094800D-01
5.456000D-01           5.085570D-01
1.517000D-01           4.688420D-01
P   1   1.00
1.517000D-01           1.000000D+00
P   1   1.00
0.0404100              1.0000000
D   1   1.00
5.500000D-01           1.0000000
D   1   1.00
0.1510000              1.0000000
****
N     0
S   9   1.00
9.046000D+03           7.000000D-04
1.357000D+03           5.389000D-03
3.093000D+02           2.740600D-02
8.773000D+01           1.032070D-01
2.856000D+01           2.787230D-01
1.021000D+01           4.485400D-01
3.838000D+00           2.782380D-01
7.466000D-01           1.544000D-02
2.248000D-01          -2.864000D-03
S   9   1.00
9.046000D+03          -1.530000D-04
1.357000D+03          -1.208000D-03
3.093000D+02          -5.992000D-03
8.773000D+01          -2.454400D-02
2.856000D+01          -6.745900D-02
1.021000D+01          -1.580780D-01
3.838000D+00          -1.218310D-01
7.466000D-01           5.490030D-01
2.248000D-01           5.788150D-01
S   1   1.00
2.248000D-01           1.000000D+00
S   1   1.00
0.0612400              1.0000000
P   4   1.00
1.355000D+01           3.991900D-02
2.917000D+00           2.171690D-01
7.973000D-01           5.103190D-01
2.185000D-01           4.622140D-01
P   1   1.00
2.185000D-01           1.000000D+00
P   1   1.00
0.0561100              1.0000000
D   1   1.00
8.170000D-01           1.0000000
D   1   1.00
0.2300000              1.0000000
****
O     0
S   9   1.00
1.172000D+04           7.100000D-04
1.759000D+03           5.470000D-03
4.008000D+02           2.783700D-02
1.137000D+02           1.048000D-01
3.703000D+01           2.830620D-01
1.327000D+01           4.487190D-01
5.025000D+00           2.709520D-01
1.013000D+00           1.545800D-02
3.023000D-01          -2.585000D-03
S   9   1.00
1.172000D+04          -1.600000D-04
1.759000D+03          -1.263000D-03
4.008000D+02          -6.267000D-03
1.137000D+02          -2.571600D-02
3.703000D+01          -7.092400D-02
1.327000D+01          -1.654110D-01
5.025000D+00          -1.169550D-01
1.013000D+00           5.573680D-01
3.023000D-01           5.727590D-01
S   1   1.00
3.023000D-01           1.000000D+00
S   1   1.00
0.0789600              1.0000000
P   4   1.00
1.770000D+01           4.301800D-02
3.854000D+00           2.289130D-01
1.046000D+00           5.087280D-01
2.753000D-01           4.605310D-01
P   1   1.00
2.753000D-01           1.000000D+00
P   1   1.00
0.0685600              1.0000000
D   1   1.00
1.185000D+00           1.0000000
D   1   1.00
0.3320000              1.0000000
****
Fe     0
S   20   1.00
4.316265D+06           8.048803D-06
6.463424D+05           6.258306D-05
1.470897D+05           3.290239D-04
4.166152D+04           1.387355D-03
1.359077D+04           5.023256D-03
4.905750D+03           1.610140D-02
1.912746D+03           4.590034D-02
7.926043D+02           1.136154D-01
3.448065D+02           2.283869D-01
1.558999D+02           3.221159D-01
7.223091D+01           2.383661D-01
3.272506D+01           7.404667D-02
1.566762D+01           9.214197D-02
7.503483D+00           9.339790D-02
3.312223D+00           1.573965D-02
1.558471D+00          -4.186682D-04
6.839140D-01           5.376318D-05
1.467570D-01          -3.816654D-05
7.058300D-02           4.319603D-05
3.144900D-02          -3.401019D-06
S   20   1.00
4.316265D+06          -4.155954D-06
6.463424D+05          -3.231401D-05
1.470897D+05          -1.699525D-04
4.166152D+04          -7.171369D-04
1.359077D+04          -2.603625D-03
4.905750D+03          -8.399109D-03
1.912746D+03          -2.434109D-02
7.926043D+02          -6.251948D-02
3.448065D+02          -1.365929D-01
1.558999D+02          -2.312707D-01
7.223091D+01          -2.383734D-01
3.272506D+01           3.123837D-02
1.566762D+01           5.086818D-01
7.503483D+00           4.987695D-01
3.312223D+00           9.033552D-02
1.558471D+00          -6.005337D-03
6.839140D-01           2.312454D-04
1.467570D-01          -5.643680D-04
7.058300D-02           4.992260D-04
3.144900D-02          -1.015293D-04
S   20   1.00
4.316265D+06           9.532178D-07
6.463424D+05           7.414605D-06
1.470897D+05           3.898393D-05
4.166152D+04           1.647152D-04
1.359077D+04           5.985980D-04
4.905750D+03           1.942390D-03
1.912746D+03           5.687237D-03
7.926043D+02           1.501329D-02
3.448065D+02           3.452455D-02
1.558999D+02           6.495820D-02
7.223091D+01           7.716194D-02
3.272506D+01          -1.873411D-02
1.566762D+01          -3.009185D-01
7.503483D+00          -4.554661D-01
3.312223D+00           1.286463D-01
1.558471D+00           7.183316D-01
6.839140D-01           4.051743D-01
1.467570D-01           2.168227D-02
7.058300D-02          -8.343566D-03
3.144900D-02           3.658979D-03
S   20   1.00
4.316265D+06          -2.063008D-07

             Standard Nuclear Orientation (Angstroms)
    I     Atom           X                Y                Z
 ----------------------------------------------------------------
    1      N      -2.1260228000    -2.2722362000     1.1477089000
    2      C      -4.0967826000     2.4636873000    -0.1834367000
    3      H      -4.8341795000     3.0392528000    -0.7682108000
    4      N      -2.8972312000     2.2491310000    -0.9745165000
    5      H      -2.0565259000     2.5483147000    -0.4753836000
    6      C      -3.6919935000     3.3085441000     1.0634481000
    7      O      -4.6385612000     3.7008471000     1.7877154000
    8      C      -2.8210677000     1.6387211000    -2.1685515000
    9      O      -3.8036237000     1.2430891000    -2.8100100000
   10      C      -1.9374313000    -3.1047481000     0.1279323000
   11      C      -2.9741386000    -4.1346676000    -0.2213915000
   12      H      -3.2999388000    -4.7001565000     0.6635503000
   13      H      -3.8623072000    -3.6581728000    -0.6654198000
   14      H      -2.5396948000    -4.8251802000    -0.9543278000
   15      C      -1.3907357000     1.4843845000    -2.7109809000
   16      H      -1.0552256000     2.4610560000    -3.0920101000
   17      H      -1.4390900000     0.7728594000    -3.5453977000
   18      C      -0.4468037000     0.9645429000    -1.6437095000
   19      C       0.4084867000     1.8527023000    -1.0128988000
   20      H       0.4438852000     2.8818585000    -1.3702588000
   21      C       1.2930259000     1.4719364000     0.0522416000
   22      O       1.2838084000     0.3054737000     0.5702017000
   23      N       2.1224926000     2.4167858000     0.5648121000
   24      H       2.0792469000     3.2866818000     0.0428955000
   25      C       4.4563785000     1.5603899000     0.0847579000
   26      O       5.6623053000     1.5633005000     0.4455620000
   27      N       2.8365537000    -2.3071600000     0.8592760000
   28      C       2.9728518000    -2.1482287000    -0.4552444000
   29      C       4.3183246000    -2.0954857000    -1.1082745000
   30      H       4.2557056000    -2.6177151000    -2.0736180000
   31      H       4.5465359000    -1.0308105000    -1.2944107000
   32      H       5.1167752000    -2.5385438000    -0.5013997000
   33      C       3.8953979000    -2.2921350000     1.8750032000
   34      H       3.4512803000    -2.7766078000     2.7555589000
   35      H       4.7235975000    -2.9249027000     1.5259693000
   36      C       4.3936995000    -0.8781619000     2.1918385000
   37      H       5.2190850000    -0.9713599000     2.9206427000
   38      H       4.8517598000    -0.4552757000     1.2886700000
   39      C       3.3033480000     0.0590172000     2.7414199000
   40      H       2.3423863000    -0.1981155000     2.2887350000
   41      H       3.2040244000    -0.1203801000     3.8273850000
   42      C       3.5554349000     1.5623503000     2.5389226000
   43      H       2.8532031000     2.1218760000     3.1805457000
   44      H       4.5690596000     1.8085741000     2.8963998000
   45      C       3.4689860000     2.1920522000     1.1250683000
   46      H       3.8470652000     3.2162809000     1.2688817000
   47      C      -4.3521273000    -1.1581549000     1.2926500000
   48      H      -4.7141457000    -1.6041029000     0.3495547000
   49      H      -5.2287312000    -1.0913533000     1.9613300000
   50      C      -3.3457743000    -2.1145816000     1.9393058000
   51      H      -3.7916302000    -3.1068915000     2.0890086000
   52      H      -3.0141030000    -1.7408409000     2.9183656000
   53      C      -3.7817968000     0.2304209000     1.0101556000
   54      H      -2.8652478000     0.1200228000     0.4115054000
   55      H      -3.4720710000     0.7021956000     1.9595284000
   56      C      -4.7526161000     1.1422257000     0.2616434000
   57      H      -5.1350145000     0.6183194000    -0.6291987000
   58      H      -5.6152901000     1.4029940000     0.8953623000
   59      O      -2.4539076000     3.4933037000     1.2436653000
   60      O       3.9796063000     1.1263840000    -0.9965059000
   61      O      -0.5640079000    -0.3003728000    -1.3901905000
   62      Fe      0.3245055000    -1.4013242000     0.0640597000
   63      O      -1.1445810000    -1.3551078000     1.3906814000
   64      O      -0.8557145000    -3.0106973000    -0.5422092000
   65      O       1.5598810000    -2.3048871000     1.3428435000
   66      O       1.9144397000    -2.0006871000    -1.1602503000
 ----------------------------------------------------------------

   20   -3127.9154370174      5.78e-09  Convergence criterion met
 Total energy in the final basis set =    -3127.9154370174

         TDDFT/TDA Excitation Energies
 ---------------------------------------------------

 Excited state   1: excitation energy (eV) =    2.2916
 Total energy for state  1:                 -3127.83122150 au
    <S**2>     :  8.7951
    Trans. Mom.:  0.0839 X  -0.0155 Y  -0.0086 Z
    Strength   :     0.0004128723
    D(  145) --> S(    1) amplitude = -0.2741 beta
    D(  146) --> S(    1) amplitude =  0.8742 beta
    D(  147) --> S(    1) amplitude = -0.3058 beta

 Excited state   2: excitation energy (eV) =    2.3667
 Total energy for state  2:                 -3127.82846103 au
    <S**2>     :  8.8017
    Trans. Mom.: -0.2404 X  -0.0489 Y   0.0124 Z
    Strength   :     0.0034998343
    D(  145) --> S(    1) amplitude =  0.7437 beta
    D(  145) --> S(    3) amplitude =  0.2183 beta
    D(  147) --> S(    1) amplitude = -0.5610 beta

 Excited state   3: excitation energy (eV) =    2.5439
 Total energy for state  3:                 -3127.82195131 au
    <S**2>     :  8.7820
    Trans. Mom.:  0.9403 X  -0.0990 Y  -0.0293 Z
    Strength   :     0.0557694720
    D(  145) --> S(    3) amplitude =  0.3185 beta
    D(  146) --> S(    2) amplitude =  0.7010 beta
    D(  146) --> S(    3) amplitude =  0.2879 beta
    D(  147) --> S(    2) amplitude = -0.3503 beta
    D(  147) --> S(    3) amplitude = -0.3519 beta

 Excited state   4: excitation energy (eV) =    2.5587
 Total energy for state  4:                 -3127.82140531 au
    <S**2>     :  8.7919
    Trans. Mom.: -0.3262 X   0.0881 Y  -0.0452 Z
    Strength   :     0.0072858318
    D(  145) --> S(    3) amplitude = -0.3715 beta
    D(  146) --> S(    2) amplitude = -0.2048 beta
    D(  146) --> S(    3) amplitude =  0.8349 beta
    D(  147) --> S(    2) amplitude =  0.1545 beta
    D(  147) --> S(    3) amplitude = -0.2210 beta

 Excited state   5: excitation energy (eV) =    2.5973
 Total energy for state  5:                 -3127.81998649 au
    <S**2>     :  8.8042
    Trans. Mom.: -0.1222 X  -0.1055 Y   0.0070 Z
    Strength   :     0.0016617395
    D(  145) --> S(    2) amplitude =  0.7413 beta
    D(  145) --> S(    3) amplitude = -0.2953 beta
    D(  147) --> S(    2) amplitude = -0.5406 beta
    D(  147) --> S(    3) amplitude =  0.1620 beta

 Excited state   6: excitation energy (eV) =    2.8359
 Total energy for state  6:                 -3127.81121778 au
    <S**2>     :  8.8092
    Trans. Mom.: -0.2494 X  -0.6193 Y   0.2731 Z
    Strength   :     0.0361533923
    D(  145) --> S(    2) amplitude = -0.3601 beta
    D(  145) --> S(    3) amplitude = -0.4668 beta
    D(  146) --> S(    2) amplitude =  0.4054 beta
    D(  147) --> S(    1) amplitude = -0.2430 beta
    D(  147) --> S(    3) amplitude =  0.5526 beta

 Excited state   7: excitation energy (eV) =    3.0497
 Total energy for state  7:                 -3127.80336255 au
    <S**2>     :  9.3360
    Trans. Mom.:  0.1836 X   0.0548 Y   0.1711 Z
    Strength   :     0.0049309891
    S(    5) --> V(    2) amplitude = -0.1540 alpha
    D(  142) --> S(    1) amplitude = -0.2100 beta
    D(  143) --> S(    1) amplitude = -0.1856 beta
    D(  144) --> S(    1) amplitude =  0.2415 beta
    D(  145) --> S(    1) amplitude =  0.4407 beta
    D(  146) --> S(    1) amplitude =  0.3008 beta
    D(  147) --> S(    1) amplitude =  0.5974 beta
    D(  147) --> V(    5) amplitude =  0.1782 beta

 Excited state   8: excitation energy (eV) =    3.3551
 Total energy for state  8:                 -3127.79213821 au
    <S**2>     :  8.7944
    Trans. Mom.:  0.0495 X   0.0546 Y  -0.0443 Z
    Strength   :     0.0006082621
    D(  142) --> S(    2) amplitude = -0.2206 beta
    D(  143) --> S(    2) amplitude = -0.1936 beta
    D(  144) --> S(    2) amplitude =  0.2568 beta
    D(  145) --> S(    2) amplitude =  0.4287 beta
    D(  146) --> S(    2) amplitude =  0.3148 beta
    D(  147) --> S(    2) amplitude =  0.6526 beta
    D(  147) --> S(    3) amplitude =  0.1807 beta

 Excited state   9: excitation energy (eV) =    3.4567
 Total energy for state  9:                 -3127.78840556 au
    <S**2>     :  8.9018
    Trans. Mom.:  0.1391 X  -0.2373 Y   0.1176 Z
    Strength   :     0.0075787353
    D(  142) --> S(    3) amplitude = -0.1926 beta
    D(  143) --> S(    3) amplitude = -0.1665 beta
    D(  144) --> S(    3) amplitude =  0.2350 beta
    D(  145) --> S(    3) amplitude =  0.4703 beta
    D(  145) --> S(    4) amplitude =  0.1890 beta
    D(  146) --> S(    2) amplitude = -0.1739 beta
    D(  146) --> S(    3) amplitude =  0.2956 beta
    D(  147) --> S(    2) amplitude = -0.1694 beta
    D(  147) --> S(    3) amplitude =  0.5500 beta

 Excited state  10: excitation energy (eV) =    3.6065
 Total energy for state 10:                 -3127.78289883 au
    <S**2>     :  8.9311
    Trans. Mom.: -0.1913 X  -0.0635 Y  -0.0463 Z
    Strength   :     0.0037779409
    D(  145) --> S(    4) amplitude =  0.1555 beta
    D(  146) --> S(    4) amplitude =  0.6685 beta
    D(  146) --> S(    5) amplitude = -0.3350 beta
    D(  146) --> V(    1) amplitude =  0.1822 beta
    D(  147) --> S(    4) amplitude = -0.4798 beta

 Excited state  11: excitation energy (eV) =    3.6337
 Total energy for state 11:                 -3127.78189998 au
    <S**2>     :  8.8527
    Trans. Mom.: -0.1575 X  -0.0233 Y   0.0325 Z
    Strength   :     0.0023513193
    D(  145) --> S(    4) amplitude =  0.7751 beta
    D(  146) --> S(    4) amplitude = -0.3066 beta
    D(  146) --> S(    5) amplitude =  0.1751 beta
    D(  147) --> S(    4) amplitude = -0.3619 beta

 Excited state  12: excitation energy (eV) =    3.7054
 Total energy for state 12:                 -3127.77926474 au
    <S**2>     :  9.8779
    Trans. Mom.:  0.0989 X   0.1758 Y   0.0810 Z
    Strength   :     0.0042901269
    S(    5) --> V(    1) amplitude = -0.3063 alpha
    S(    5) --> V(    2) amplitude =  0.3484 alpha
    S(    5) --> V(    3) amplitude = -0.1762 alpha
    S(    5) --> V(    5) amplitude = -0.2640 alpha
    D(  146) --> S(    4) amplitude =  0.1795 beta
    D(  147) --> S(    1) amplitude =  0.2157 beta
    D(  147) --> S(    3) amplitude = -0.1515 beta
    D(  147) --> S(    5) amplitude = -0.1986 beta
    D(  147) --> V(    5) amplitude = -0.3238 beta

 Excited state  13: excitation energy (eV) =    3.7659
 Total energy for state 13:                 -3127.77704289 au
    <S**2>     :  8.8364
    Trans. Mom.: -0.2259 X  -0.0231 Y  -0.0154 Z
    Strength   :     0.0047810810
    D(  138) --> S(    1) amplitude = -0.1588 beta
    D(  145) --> S(    5) amplitude = -0.2418 beta
    D(  146) --> S(    4) amplitude =  0.4163 beta
    D(  146) --> S(    5) amplitude =  0.6508 beta
    D(  146) --> V(    1) amplitude = -0.2660 beta
    D(  147) --> S(    4) amplitude = -0.1567 beta

 Excited state  14: excitation energy (eV) =    3.7967
 Total energy for state 14:                 -3127.77591130 au
    <S**2>     :  8.8392
    Trans. Mom.: -0.1000 X   0.0442 Y  -0.0533 Z
    Strength   :     0.0013754721
    D(  136) --> S(    1) amplitude =  0.5329 beta
    D(  138) --> S(    1) amplitude =  0.7159 beta

 Excited state  15: excitation energy (eV) =    3.9274
 Total energy for state 15:                 -3127.77110845 au
    <S**2>     :  8.8005
    Trans. Mom.: -0.0372 X  -0.0315 Y  -0.0893 Z
    Strength   :     0.0009959935
    D(  136) --> S(    2) amplitude =  0.5578 beta
    D(  138) --> S(    2) amplitude =  0.7075 beta

 Excited state  16: excitation energy (eV) =    4.0282
 Total energy for state 16:                 -3127.76740379 au
    <S**2>     :  8.7880
    Trans. Mom.:  0.0363 X  -0.1727 Y   0.0482 Z
    Strength   :     0.0033028097
    D(  136) --> S(    3) amplitude = -0.3155 beta
    D(  138) --> S(    3) amplitude = -0.4198 beta
    D(  145) --> S(    5) amplitude =  0.5235 beta
    D(  145) --> V(    1) amplitude = -0.2433 beta
    D(  147) --> S(    5) amplitude = -0.4500 beta
    D(  147) --> V(    1) amplitude =  0.1890 beta

 Excited state  17: excitation energy (eV) =    4.0335
 Total energy for state 17:                 -3127.76720750 au
    <S**2>     :  8.7930
    Trans. Mom.:  0.1037 X   0.0653 Y  -0.0338 Z
    Strength   :     0.0015963198
    D(  136) --> S(    3) amplitude =  0.4406 beta
    D(  138) --> S(    3) amplitude =  0.5920 beta
    D(  145) --> S(    5) amplitude =  0.3910 beta
    D(  145) --> V(    1) amplitude = -0.1734 beta
    D(  147) --> S(    5) amplitude = -0.3092 beta
    D(  147) --> V(    1) amplitude =  0.1523 beta

 Excited state  18: excitation energy (eV) =    4.2440
 Total energy for state 18:                 -3127.75947312 au
    <S**2>     :  9.9119
    Trans. Mom.: -0.0452 X  -0.0469 Y  -0.0129 Z
    Strength   :     0.0004578994
    S(    3) --> V(   16) amplitude = -0.3470 alpha
    S(    3) --> V(   18) amplitude = -0.2824 alpha
    D(  132) --> S(    2) amplitude = -0.2517 beta
    D(  134) --> S(    2) amplitude =  0.4233 beta
    D(  145) --> V(   17) amplitude = -0.1546 beta
    D(  145) --> V(   18) amplitude =  0.2746 beta
    D(  147) --> V(   18) amplitude = -0.1817 beta

 Excited state  19: excitation energy (eV) =    4.2633
 Total energy for state 19:                 -3127.75876529 au
    <S**2>     :  9.4525
    Trans. Mom.:  0.0471 X   0.0342 Y   0.0517 Z
    Strength   :     0.0006329782
    S(    3) --> V(   16) amplitude = -0.2599 alpha
    S(    3) --> V(   18) amplitude = -0.2196 alpha
    D(  127) --> S(    2) amplitude = -0.1922 beta
    D(  132) --> S(    2) amplitude =  0.2722 beta
    D(  133) --> S(    2) amplitude = -0.1973 beta
    D(  134) --> S(    2) amplitude = -0.5514 beta
    D(  145) --> V(   18) amplitude =  0.2044 beta

 Excited state  20: excitation energy (eV) =    4.3414
 Total energy for state 20:                 -3127.75589191 au
    <S**2>     : 10.0729
    Trans. Mom.: -0.1031 X   0.0009 Y   0.0149 Z
    Strength   :     0.0011545764
    S(    4) --> V(   18) amplitude = -0.1946 alpha
    S(    4) --> V(   19) amplitude = -0.3778 alpha
    S(    4) --> V(   20) amplitude =  0.2630 alpha
    D(  134) --> S(    1) amplitude =  0.3077 beta
    D(  146) --> V(   19) amplitude =  0.1621 beta
    D(  146) --> V(   22) amplitude =  0.3041 beta

 Excited state  21: excitation energy (eV) =    4.3550
 Total energy for state 21:                 -3127.75539506 au
    <S**2>     :  9.1027
    Trans. Mom.: -0.2673 X   0.0497 Y  -0.1061 Z
    Strength   :     0.0090884492
    S(    4) --> V(   19) amplitude =  0.1613 alpha
    D(  127) --> S(    1) amplitude =  0.2053 beta
    D(  132) --> S(    1) amplitude = -0.1679 beta
    D(  133) --> S(    1) amplitude =  0.2052 beta
    D(  134) --> S(    1) amplitude =  0.7135 beta
    D(  135) --> S(    1) amplitude = -0.1830 beta
    D(  146) --> V(   22) amplitude = -0.1649 beta

 Excited state  22: excitation energy (eV) =    4.3824
 Total energy for state 22:                 -3127.75438550 au
    <S**2>     :  8.9190
    Trans. Mom.:  0.1557 X   0.2960 Y   0.0797 Z
    Strength   :     0.0126928782
    D(  124) --> S(    1) amplitude = -0.1545 beta
    D(  127) --> S(    1) amplitude =  0.1512 beta
    D(  130) --> S(    1) amplitude = -0.1629 beta
    D(  132) --> S(    1) amplitude = -0.6336 beta
    D(  132) --> S(    3) amplitude =  0.1831 beta
    D(  135) --> S(    1) amplitude =  0.2778 beta
    D(  142) --> S(    1) amplitude =  0.2015 beta
    D(  143) --> S(    1) amplitude =  0.2252 beta
    D(  144) --> S(    1) amplitude = -0.2284 beta
    D(  145) --> S(    1) amplitude =  0.1703 beta
    D(  147) --> S(    1) amplitude =  0.1704 beta

 Excited state  23: excitation energy (eV) =    4.4247
 Total energy for state 23:                 -3127.75283227 au
    <S**2>     :  8.9879
    Trans. Mom.:  0.2593 X   0.2986 Y  -0.0349 Z
    Strength   :     0.0170850959
    D(  130) --> S(    1) amplitude =  0.1517 beta
    D(  132) --> S(    1) amplitude =  0.3912 beta
    D(  133) --> S(    1) amplitude =  0.2778 beta
    D(  134) --> S(    1) amplitude =  0.2212 beta
    D(  135) --> S(    1) amplitude =  0.2621 beta
    D(  142) --> S(    1) amplitude =  0.3331 beta
    D(  143) --> S(    1) amplitude =  0.3592 beta
    D(  144) --> S(    1) amplitude = -0.3214 beta
    D(  145) --> S(    1) amplitude =  0.1567 beta
    D(  146) --> S(    1) amplitude =  0.1857 beta
    D(  147) --> S(    1) amplitude =  0.1845 beta

 Excited state  24: excitation energy (eV) =    4.5611
 Total energy for state 24:                 -3127.74781899 au
    <S**2>     :  8.7878
    Trans. Mom.:  0.1457 X   0.0360 Y  -0.0375 Z
    Strength   :     0.0026739215
    D(  124) --> S(    3) amplitude =  0.1951 beta
    D(  128) --> S(    3) amplitude = -0.1783 beta
    D(  129) --> S(    3) amplitude =  0.1623 beta
    D(  130) --> S(    3) amplitude =  0.1691 beta
    D(  132) --> S(    3) amplitude =  0.3755 beta
    D(  133) --> S(    3) amplitude =  0.3099 beta
    D(  134) --> S(    3) amplitude =  0.6446 beta
    D(  135) --> S(    3) amplitude = -0.2137 beta

 Excited state  25: excitation energy (eV) =    4.5753
 Total energy for state 25:                 -3127.74729659 au
    <S**2>     :  8.7810
    Trans. Mom.: -0.1838 X  -0.0699 Y   0.0965 Z
    Strength   :     0.0053770311
    D(  125) --> S(    3) amplitude = -0.1977 beta
    D(  127) --> S(    3) amplitude =  0.2676 beta
    D(  131) --> S(    3) amplitude = -0.1543 beta
    D(  132) --> S(    1) amplitude = -0.1534 beta
    D(  132) --> S(    3) amplitude = -0.5950 beta
    D(  134) --> S(    3) amplitude =  0.4578 beta

 Excited state  26: excitation energy (eV) =    4.5812
 Total energy for state 26:                 -3127.74707943 au
    <S**2>     :  8.7782
    Trans. Mom.:  0.0784 X   0.0233 Y  -0.0800 Z
    Strength   :     0.0014698044
    D(  132) --> S(    3) amplitude =  0.2001 beta
    D(  142) --> S(    4) amplitude = -0.1939 beta
    D(  143) --> S(    4) amplitude = -0.1711 beta
    D(  144) --> S(    4) amplitude =  0.2237 beta
    D(  145) --> S(    4) amplitude =  0.3426 beta
    D(  145) --> S(    5) amplitude =  0.1858 beta
    D(  146) --> S(    4) amplitude =  0.2675 beta
    D(  147) --> S(    4) amplitude =  0.5900 beta
    D(  147) --> S(    5) amplitude =  0.2204 beta

 Excited state  27: excitation energy (eV) =    4.6298
 Total energy for state 27:                 -3127.74529330 au
    <S**2>     :  8.7881
    Trans. Mom.: -0.0533 X  -0.0186 Y   0.0082 Z
    Strength   :     0.0003686900
    D(  132) --> S(    2) amplitude = -0.2698 beta
    D(  135) --> S(    2) amplitude =  0.4194 beta
    D(  142) --> S(    2) amplitude =  0.3658 beta
    D(  143) --> S(    2) amplitude =  0.4024 beta
    D(  144) --> S(    2) amplitude = -0.3620 beta
    D(  145) --> S(    2) amplitude =  0.2242 beta
    D(  146) --> S(    2) amplitude =  0.2083 beta
    D(  147) --> S(    2) amplitude =  0.2362 beta
    D(  147) --> S(    4) amplitude = -0.1766 beta

 Excited state  28: excitation energy (eV) =    4.7020
 Total energy for state 28:                 -3127.74264325 au
    <S**2>     :  8.8059
    Trans. Mom.:  0.2347 X   0.2017 Y   0.1776 Z
    Strength   :     0.0146673726
    D(  142) --> S(    5) amplitude = -0.1557 beta
    D(  143) --> S(    3) amplitude = -0.1583 beta
    D(  144) --> S(    5) amplitude =  0.1857 beta
    D(  145) --> S(    5) amplitude =  0.3435 beta
    D(  146) --> S(    5) amplitude =  0.2433 beta
    D(  147) --> S(    4) amplitude = -0.2708 beta
    D(  147) --> S(    5) amplitude =  0.4978 beta
    D(  147) --> V(    1) amplitude = -0.2063 beta

 Excited state  29: excitation energy (eV) =    4.7248
 Total energy for state 29:                 -3127.74180492 au
    <S**2>     :  8.7906
    Trans. Mom.: -0.0157 X   0.0912 Y  -0.0324 Z
    Strength   :     0.0011130145
    D(  124) --> S(    2) amplitude = -0.1750 beta
    D(  132) --> S(    2) amplitude = -0.7046 beta
    D(  133) --> S(    2) amplitude = -0.3226 beta
    D(  134) --> S(    2) amplitude = -0.3301 beta
    D(  142) --> S(    2) amplitude = -0.1829 beta
    D(  143) --> S(    2) amplitude = -0.1985 beta

 Excited state  30: excitation energy (eV) =    4.7436
 Total energy for state 30:                 -3127.74111228 au
    <S**2>     :  8.8467
    Trans. Mom.: -0.0527 X   0.0819 Y  -0.0657 Z
    Strength   :     0.0016046921
    D(  133) --> S(    3) amplitude =  0.1845 beta
    D(  135) --> S(    3) amplitude =  0.3622 beta
    D(  142) --> S(    3) amplitude =  0.3865 beta
    D(  143) --> S(    3) amplitude =  0.4276 beta
    D(  144) --> S(    3) amplitude = -0.3496 beta
    D(  145) --> S(    3) amplitude =  0.1857 beta
    D(  146) --> S(    3) amplitude =  0.2071 beta
    D(  147) --> S(    3) amplitude =  0.2127 beta
    D(  147) --> S(    5) amplitude =  0.1707 beta

 Excited state  31: excitation energy (eV) =    4.8079
 Total energy for state 31:                 -3127.73874903 au
    <S**2>     :  8.8692
    Trans. Mom.:  0.0449 X  -0.0432 Y  -0.0061 Z
    Strength   :     0.0004613747
    D(  125) --> S(    1) amplitude = -0.2212 beta
    D(  128) --> S(    1) amplitude =  0.2373 beta
    D(  130) --> S(    1) amplitude = -0.3767 beta
    D(  131) --> S(    1) amplitude =  0.1692 beta
    D(  133) --> S(    1) amplitude =  0.5068 beta
    D(  142) --> S(    1) amplitude =  0.1959 beta
    D(  143) --> S(    1) amplitude =  0.2650 beta
    D(  144) --> S(    1) amplitude =  0.3554 beta

 Excited state  32: excitation energy (eV) =    4.8447
 Total energy for state 32:                 -3127.73739919 au
    <S**2>     :  8.8150
    Trans. Mom.: -0.0087 X   0.0581 Y  -0.0647 Z
    Strength   :     0.0009066186
    D(  129) --> S(    1) amplitude = -0.6247 beta
    D(  130) --> S(    1) amplitude = -0.3470 beta
    D(  131) --> S(    1) amplitude = -0.2008 beta
    D(  132) --> S(    1) amplitude =  0.2927 beta
    D(  133) --> S(    1) amplitude = -0.2628 beta
    D(  134) --> S(    1) amplitude =  0.2884 beta

 Excited state 100: excitation energy (eV) =    6.0956

                    Orbital Energies (a.u.)
 --------------------------------------------------------------

 Alpha MOs
 -- Occupied --
******** -30.2388 -26.0937 -26.0916 -26.0898 -19.2200 -19.2179 -19.2138
-19.2120 -19.2088 -19.2049 -19.1904 -19.1675 -19.1639 -19.1603 -19.1582
-14.4928 -14.4878 -14.4219 -14.4150 -10.3714 -10.3708 -10.3664 -10.3648
-10.3477 -10.3417 -10.3362 -10.2944 -10.2905 -10.2890 -10.2848 -10.2653
-10.2634 -10.2552 -10.2519 -10.2472 -10.2437 -10.2429 -10.2394 -10.2378
-10.2315  -3.7317  -2.5099  -2.5061  -2.5016  -1.1765  -1.1704  -1.1313
 -1.1207  -1.1108  -1.1057  -1.1036  -1.0990  -1.0965  -1.0249  -1.0172
 -1.0014  -0.9985  -0.9456  -0.9375  -0.8827  -0.8746  -0.8629  -0.8425
 -0.8321  -0.8138  -0.8062  -0.7979  -0.7730  -0.7654  -0.7192  -0.7138
 -0.6801  -0.6722  -0.6465  -0.6459  -0.6323  -0.6235  -0.6169  -0.6062
 -0.6025  -0.5987  -0.5885  -0.5839  -0.5759  -0.5697  -0.5642  -0.5563
 -0.5517  -0.5450  -0.5429  -0.5377  -0.5305  -0.5270  -0.5248  -0.5211
 -0.5188  -0.5169  -0.5097  -0.5092  -0.5058  -0.4997  -0.4964  -0.4922
 -0.4891  -0.4874  -0.4835  -0.4809  -0.4780  -0.4745  -0.4705  -0.4677
 -0.4660  -0.4586  -0.4564  -0.4552  -0.4524  -0.4509  -0.4477  -0.4463
 -0.4380  -0.4339  -0.4304  -0.4216  -0.4196  -0.4190  -0.4058  -0.4033
 -0.3970  -0.3911  -0.3892  -0.3826  -0.3801  -0.3768  -0.3719  -0.3669
 -0.3616  -0.3496  -0.3459  -0.3303  -0.3265  -0.3225  -0.3131  -0.3130
 -0.3097  -0.3070  -0.3021  -0.3006  -0.2977  -0.2790  -0.2756  -0.2704

 Beta MOs
 -- Occupied --
******** -30.1434 -26.0137 -26.0124 -26.0113 -19.2148 -19.2146 -19.2090
-19.2085 -19.2056 -19.2017 -19.1904 -19.1675 -19.1639 -19.1602 -19.1582
-14.4924 -14.4876 -14.4217 -14.4150 -10.3715 -10.3708 -10.3664 -10.3648
-10.3477 -10.3417 -10.3363 -10.2943 -10.2904 -10.2890 -10.2848 -10.2652
-10.2632 -10.2551 -10.2519 -10.2472 -10.2437 -10.2429 -10.2394 -10.2375
-10.2315  -3.5108  -2.2720  -2.2699  -2.2684  -1.1711  -1.1651  -1.1265
 -1.1205  -1.1108  -1.1054  -1.0967  -1.0932  -1.0898  -1.0249  -1.0170
 -0.9999  -0.9985  -0.9402  -0.9321  -0.8822  -0.8741  -0.8619  -0.8419
 -0.8315  -0.8127  -0.8048  -0.7968  -0.7724  -0.7649  -0.7183  -0.7130
 -0.6776  -0.6707  -0.6456  -0.6406  -0.6305  -0.6153  -0.6063  -0.6045
 -0.5968  -0.5858  -0.5806  -0.5746  -0.5707  -0.5648  -0.5556  -0.5514
 -0.5473  -0.5428  -0.5362  -0.5275  -0.5242  -0.5222  -0.5182  -0.5111
 -0.5076  -0.5064  -0.4944  -0.4915  -0.4891  -0.4843  -0.4829  -0.4808
 -0.4761  -0.4753  -0.4717  -0.4694  -0.4644  -0.4615  -0.4565  -0.4547
 -0.4514  -0.4480  -0.4464  -0.4379  -0.4362  -0.4321  -0.4221  -0.4203
 -0.4194  -0.4093  -0.3999  -0.3959  -0.3903  -0.3890  -0.3840  -0.3808
 -0.3748  -0.3738  -0.3702  -0.3623  -0.3611  -0.3548  -0.3490  -0.3347
 -0.3267  -0.3207  -0.3129  -0.3128  -0.3085  -0.3023  -0.3013  -0.2982
 -0.2799  -0.2729  -0.2669

          Ground-State Mulliken Net Atomic Charges

     Atom                 Charge (a.u.)    Spin (a.u.)
  --------------------------------------------------------
      1 N                     0.837988       0.014773
      2 C                     1.021020       0.000165
      3 H                    -0.693405      -0.000003
      4 N                     0.121600       0.000888
      5 H                     0.058299      -0.000236
      6 C                     0.939153      -0.000227
      7 O                    -0.916528       0.000009
      8 C                     0.534476      -0.001221
      9 O                    -0.871061       0.000260
     10 C                    -1.110030      -0.024946
     11 C                     1.568695       0.004789
     12 H                    -0.139986      -0.000368
     13 H                    -0.138056      -0.000075
     14 H                    -0.514056       0.000209
     15 C                     1.568353       0.011349
     16 H                    -0.433036       0.000749
     17 H                    -0.589337       0.000493
     18 C                    -1.025598      -0.025540
     19 C                     3.024788       0.034649
     20 H                    -1.554316      -0.000042
     21 C                    -0.724489      -0.014247
     22 O                    -0.526648       0.111398
     23 N                     0.089379       0.007687
     24 H                    -0.067885       0.000704
     25 C                     0.934742       0.000719
     26 O                    -1.005526       0.000401
     27 N                     1.230277       0.016078
     28 C                    -0.833827      -0.014792
     29 C                     1.930799       0.004071
     30 H                    -0.408826       0.000378
     31 H                    -0.256105       0.001423
     32 H                    -0.378062       0.000110
     33 C                     1.137464       0.000537
     34 H                    -0.740660       0.000595
     35 H                    -0.588231       0.000584
     36 C                     1.328805       0.000134
     37 H                    -0.556186       0.000498
     38 H                    -0.736324      -0.000675
     39 C                     1.410614       0.001575
     40 H                    -0.897728      -0.000654
     41 H                    -0.534132       0.000411
     42 C                     1.169237       0.002588
     43 H                    -0.466950       0.000079
     44 H                    -0.555183       0.000134
     45 C                     0.572371      -0.002419
     46 H                    -0.596948      -0.000048
     47 C                     1.366426       0.001200
     48 H                    -0.560812      -0.000494
     49 H                    -0.554905       0.000205
     50 C                     1.231133      -0.002281
     51 H                    -0.601053       0.001449
     52 H                    -0.666049       0.000672
     53 C                     1.446966       0.000637
     54 H                    -1.301574      -0.000337
     55 H                    -0.589489       0.000426
     56 C                     0.892530       0.000955
     57 H                    -0.531523       0.000005
     58 H                    -0.640547       0.000083
     59 O                    -0.847523      -0.000130
     60 O                    -0.856898       0.000111
     61 O                    -0.903662       0.104759
     62 Fe                    3.346217       4.228636
     63 O                    -1.092821       0.172124
     64 O                    -0.694596       0.096826
     65 O                    -1.224213       0.170675
     66 O                    -0.836549       0.091538
  --------------------------------------------------------
  Sum of atomic charges =    -2.000000

                    Cartesian Multipole Moments
 -----------------------------------------------------------------
    Charge (ESU x 10^10)
                -9.6064
    Dipole Moment (Debye)
         X      -0.4253      Y     -17.8086      Z      -0.2449
       Tot      17.8154
    Quadrupole Moments (Debye-Ang)
        XX    -378.7002     XY      48.3667     YY    -278.2282
        XZ      14.5563     YZ     -33.5579     ZZ    -267.7984

 Total job time:  322628.40s(wall), 5328613.87s(cpu)
        *  Thank you very much for using Q-Chem.  Have a nice day.  *
