 Q-Chem 6.0, Q-Chem, Inc., Pleasanton, CA (2022)
 Q-Chem 6.0.2 for Intel X86 EM64T Linux

User input:
--------------------------------------------------------------
$molecule
-2 6
N   -2.7027024    1.8666184   -1.5522462
C   -3.9189224   -1.0493607    1.4564839
H   -3.5939282   -0.6884629    2.4513187
N   -2.8280695   -1.8256556    0.9012260
H   -3.0200557   -2.7933781    0.6087033
C   -5.1356199   -1.9459256    1.6246899
O   -6.2517291   -1.4516936    2.1786893
C   -1.5861602   -1.3203213    0.4635987
O   -1.2926367    0.0074268    0.5621043
C   -2.3819737    2.7960956   -0.5975886
C   -3.3699011    3.9918868   -0.3202131
H   -3.9703888    4.3123341   -1.2186059
H   -4.1661803    3.7382825    0.4166479
C   -0.8086092   -2.2151055   -0.1592370
H   -1.0696628   -3.2869298   -0.0959168
C    0.2999704   -1.8551266   -1.0280634
C    1.0742669   -3.0401892   -1.6684694
H    0.8997390   -3.0474526   -2.7637530
H    0.7298475   -4.0551634   -1.3187893
C    2.5562239   -2.9925473   -1.3998158
O    3.3192097   -3.6593883   -2.0866101
N    3.0162658   -2.2715270   -0.3466771
H    2.3177360   -1.8100097    0.2413169
C    4.4998598   -1.6223383    1.4659598
O    5.5915684   -1.4408016    1.9751514
C    2.0541476    2.3475270   -1.2264822
N    2.3179775    1.6797423   -0.0693212
C    3.6405886    1.5764297    0.5918772
H    3.8985717    2.5214099    1.1110071
H    3.5378590    0.8224429    1.3787845
C    3.1297522    3.2059860   -1.9162746
H    3.8131569    2.6118809   -2.5623337
H    2.6978652    4.0306909   -2.5168036
C    4.8855516    1.1624591   -0.2584623
H    5.2576195    2.0602456   -0.7957410
H    5.7493182    0.9151655    0.4069216
C    4.6826006    0.0542302   -1.3094087
H    3.6325514    0.0146693   -1.6525100
H    5.2790587    0.3670707   -2.1994104
C    5.2272840   -1.3445273   -0.9546217
H    5.2589324   -1.9203449   -1.9052878
H    6.2839043   -1.2667107   -0.6077980
C    4.4067077   -2.1698867    0.0569184
H    4.8510209   -3.1872579    0.0977806
C   -5.1872564    1.2672607   -1.5362055
H   -5.6451099    1.9975897   -0.8345163
H   -5.9728529    1.0550318   -2.3053819
C   -3.9784382    1.8597866   -2.3053944
H   -4.2675323    2.8414216   -2.7631305
H   -3.8296517    1.2030538   -3.1867648
C   -4.8583040   -0.0523602   -0.7963935
H   -4.1753195   -0.6705840   -1.4159582
H   -5.8056477   -0.6134192   -0.6561583
C   -4.2859357    0.2093821    0.6148004
H   -3.4166718    0.8657495    0.5648785
H   -5.0500224    0.7852582    1.1814689
O   -5.1296487   -3.1149714    1.2607558
O    3.3918470   -1.4039690    2.2069542
O    0.6312560   -0.6603870   -1.2023526
Fe   -0.2436151    1.0406353   -0.6513734
O   -1.7557754    0.9405639   -1.9020257
O   -1.2260028    2.6928749   -0.1087606
O    0.9229988    2.1762456   -1.7122680
O    1.2552754    1.1422575    0.5804503
H    3.7848004    3.7162236   -1.1650162
H   -2.8758294    4.9377970   -0.0165028
$end

$rem
BASIS  =  gen
DFT_D  =  D3_BJ
GUI  =  2
JOB_TYPE  =  Optimization
METHOD  =  B3LYP
SCF_CONVERGENCE  =  8
SOLVENT_METHOD  =  PCM
GEOM_OPT_MAX_CYCLES = 200
$end

$pcm
THEORY  CPCM
$end

$solvent
DIELECTRIC  78.39
$end

$van_der_waals
26   2.44
$end

!----------------------------------------------------------------------
! Basis Set Exchange
! Basis set: cc-pVDZ
!----------------------------------------------------------------------

$rem
BASIS GEN
PURECART 11
$end

$basis
H     0
S   4   1.00
1.301000D+01           1.968500D-02
1.962000D+00           1.379770D-01
4.446000D-01           4.781480D-01
1.220000D-01           5.012400D-01
S   1   1.00
1.220000D-01           1.000000D+00
P   1   1.00
7.270000D-01           1.0000000
****
C     0
S   9   1.00
6.665000D+03           6.920000D-04
1.000000D+03           5.329000D-03
2.280000D+02           2.707700D-02
6.471000D+01           1.017180D-01
2.106000D+01           2.747400D-01
7.495000D+00           4.485640D-01
2.797000D+00           2.850740D-01
5.215000D-01           1.520400D-02
1.596000D-01          -3.191000D-03
S   9   1.00
6.665000D+03          -1.460000D-04
1.000000D+03          -1.154000D-03
2.280000D+02          -5.725000D-03
6.471000D+01          -2.331200D-02
2.106000D+01          -6.395500D-02
7.495000D+00          -1.499810D-01
2.797000D+00          -1.272620D-01
5.215000D-01           5.445290D-01
1.596000D-01           5.804960D-01
S   1   1.00
1.596000D-01           1.000000D+00
P   4   1.00
9.439000D+00           3.810900D-02
2.002000D+00           2.094800D-01
5.456000D-01           5.085570D-01
1.517000D-01           4.688420D-01
P   1   1.00
1.517000D-01           1.000000D+00
D   1   1.00
5.500000D-01           1.0000000
****
N     0
S   9   1.00
9.046000D+03           7.000000D-04
1.357000D+03           5.389000D-03
3.093000D+02           2.740600D-02
8.773000D+01           1.032070D-01
2.856000D+01           2.787230D-01
1.021000D+01           4.485400D-01
3.838000D+00           2.782380D-01
7.466000D-01           1.544000D-02
2.248000D-01          -2.864000D-03
S   9   1.00
9.046000D+03          -1.530000D-04
1.357000D+03          -1.208000D-03
3.093000D+02          -5.992000D-03
8.773000D+01          -2.454400D-02
2.856000D+01          -6.745900D-02
1.021000D+01          -1.580780D-01
3.838000D+00          -1.218310D-01
7.466000D-01           5.490030D-01
2.248000D-01           5.788150D-01
S   1   1.00
2.248000D-01           1.000000D+00
P   4   1.00
1.355000D+01           3.991900D-02
2.917000D+00           2.171690D-01
7.973000D-01           5.103190D-01
2.185000D-01           4.622140D-01
P   1   1.00
2.185000D-01           1.000000D+00
D   1   1.00
8.170000D-01           1.0000000
****
O     0
S   9   1.00
1.172000D+04           7.100000D-04
1.759000D+03           5.470000D-03
4.008000D+02           2.783700D-02
1.137000D+02           1.048000D-01
3.703000D+01           2.830620D-01
1.327000D+01           4.487190D-01
5.025000D+00           2.709520D-01
1.013000D+00           1.545800D-02
3.023000D-01          -2.585000D-03
S   9   1.00
1.172000D+04          -1.600000D-04
1.759000D+03          -1.263000D-03
4.008000D+02          -6.267000D-03
1.137000D+02          -2.571600D-02
3.703000D+01          -7.092400D-02
1.327000D+01          -1.654110D-01
5.025000D+00          -1.169550D-01
1.013000D+00           5.573680D-01
3.023000D-01           5.727590D-01
S   1   1.00
3.023000D-01           1.000000D+00
P   4   1.00
1.770000D+01           4.301800D-02
3.854000D+00           2.289130D-01
1.046000D+00           5.087280D-01
2.753000D-01           4.605310D-01
P   1   1.00
2.753000D-01           1.000000D+00
D   1   1.00
1.185000D+00           1.0000000
****
Fe     0
S   20   1.00
4.316265D+06           8.048803D-06
6.463424D+05           6.258306D-05
1.470897D+05           3.290239D-04
4.166152D+04           1.387355D-03
1.359077D+04           5.023256D-03
4.905750D+03           1.610140D-02
1.912746D+03           4.590034D-02
7.926043D+02           1.136154D-01
3.448065D+02           2.283869D-01
1.558999D+02           3.221159D-01
7.223091D+01           2.383661D-01
3.272506D+01           7.404667D-02
1.566762D+01           9.214197D-02
7.503483D+00           9.339790D-02
3.312223D+00           1.573965D-02
1.558471D+00          -4.186682D-04
6.839140D-01           5.376318D-05
1.467570D-01          -3.816654D-05
7.058300D-02           4.319603D-05
3.144900D-02          -3.401019D-06
S   20   1.00
4.316265D+06          -4.155954D-06
6.463424D+05          -3.231401D-05
1.470897D+05          -1.699525D-04
4.166152D+04          -7.171369D-04
1.359077D+04          -2.603625D-03
4.905750D+03          -8.399109D-03
1.912746D+03          -2.434109D-02
7.926043D+02          -6.251948D-02
3.448065D+02          -1.365929D-01
1.558999D+02          -2.312707D-01
7.223091D+01          -2.383734D-01
3.272506D+01           3.123837D-02
1.566762D+01           5.086818D-01
7.503483D+00           4.987695D-01
3.312223D+00           9.033552D-02
1.558471D+00          -6.005337D-03
6.839140D-01           2.312454D-04
1.467570D-01          -5.643680D-04
7.058300D-02           4.992260D-04
3.144900D-02          -1.015293D-04
S   20   1.00
4.316265D+06           9.532178D-07
6.463424D+05           7.414605D-06
1.470897D+05           3.898393D-05
4.166152D+04           1.647152D-04
1.359077D+04           5.985980D-04
4.905750D+03           1.942390D-03
1.912746D+03           5.687237D-03
7.926043D+02           1.501329D-02
3.448065D+02           3.452455D-02
1.558999D+02           6.495820D-02
7.223091D+01           7.716194D-02
3.272506D+01          -1.873411D-02
1.566762D+01          -3.009185D-01
7.503483D+00          -4.554661D-01
3.312223D+00           1.286463D-01
1.558471D+00           7.183316D-01
6.839140D-01           4.051743D-01
1.467570D-01           2.168227D-02
7.058300D-02          -8.343566D-03
3.144900D-02           3.658979D-03
S   20   1.00
4.316265D+06          -2.063008D-07
6.463424D+05          -1.604169D-06
1.470897D+05          -8.438437D-06
4.166152D+04          -3.563151D-05
1.359077D+04          -1.295998D-04
4.905750D+03          -4.201534D-04
1.912746D+03          -1.231954D-03
7.926043D+02          -3.248922D-03
3.448065D+02          -7.493717D-03
1.558999D+02          -1.410102D-02
7.223091D+01          -1.691600D-02
3.272506D+01           4.218996D-03
1.566762D+01           6.833810D-02
7.503483D+00           1.098201D-01
3.312223D+00          -4.009005D-02
1.558471D+00          -2.174739D-01
6.839140D-01          -2.465135D-01
1.467570D-01           2.731435D-01
7.058300D-02           5.748321D-01
3.144900D-02           3.012713D-01

   20   -3128.5563829526      7.47e-09  Convergence criterion met
 Total energy in the final basis set =    -3128.5563829526
   17   -3128.6231444526      5.50e-09  Convergence criterion met
 Total energy in the final basis set =    -3128.6231444526
   17   -3128.6434175560      4.51e-09  Convergence criterion met
 Total energy in the final basis set =    -3128.6434175560
   16   -3128.6493047528      8.79e-09  Convergence criterion met
 Total energy in the final basis set =    -3128.6493047528
   17   -3128.6561633116      5.11e-09  Convergence criterion met
 Total energy in the final basis set =    -3128.6561633116
   17   -3128.6582312193      5.56e-09  Convergence criterion met
 Total energy in the final basis set =    -3128.6582312193
   17   -3128.6595882010      5.37e-09  Convergence criterion met
 Total energy in the final basis set =    -3128.6595882010
   17   -3128.6603452904      5.12e-09  Convergence criterion met
   17   -3128.6633258096      5.23e-09  Convergence criterion met
 Total energy in the final basis set =    -3128.6633258096
   17   -3128.6633293250      5.22e-09  Convergence criterion met
 Total energy in the final basis set =    -3128.6633293250
   17   -3128.6633320356      5.21e-09  Convergence criterion met
 Total energy in the final basis set =    -3128.6633320356
   17   -3128.6633342508      5.20e-09  Convergence criterion met
 Total energy in the final basis set =    -3128.6633342508
   17   -3128.6633359691      5.20e-09  Convergence criterion met
 Total energy in the final basis set =    -3128.6633359691
   17   -3128.6633279653      5.28e-09  Convergence criterion met
 Total energy in the final basis set =    -3128.6633279653
   17   -3128.6633288416      5.45e-09  Convergence criterion met
 Total energy in the final basis set =    -3128.6633288416

                    Orbital Energies (a.u.)
 --------------------------------------------------------------

 Alpha MOs
 -- Occupied --
******** -30.1421 -25.9968 -25.9933 -25.9914 -19.1352 -19.1344 -19.1336
-19.1320 -19.1243 -19.1214 -19.0944 -19.0651 -19.0643 -19.0577 -19.0568
-14.4130 -14.4127 -14.3395 -14.3323 -10.2891 -10.2886 -10.2864 -10.2764
-10.2504 -10.2503 -10.2496 -10.2234 -10.2161 -10.2028 -10.1998 -10.1936
-10.1931 -10.1867 -10.1831 -10.1789 -10.1734 -10.1722 -10.1682 -10.1681
-10.1624  -3.6247  -2.4044  -2.3969  -2.3937  -1.0874  -1.0850  -1.0383
 -1.0212  -1.0143  -1.0133  -1.0085  -1.0038  -1.0032  -0.9229  -0.9189
 -0.9074  -0.9017  -0.8584  -0.8539  -0.7925  -0.7879  -0.7739  -0.7568
 -0.7468  -0.7323  -0.7249  -0.7147  -0.6914  -0.6822  -0.6414  -0.6357
 -0.6003  -0.5903  -0.5705  -0.5611  -0.5498  -0.5414  -0.5341  -0.5241
 -0.5195  -0.5121  -0.5082  -0.4985  -0.4938  -0.4902  -0.4866  -0.4857
 -0.4760  -0.4643  -0.4630  -0.4530  -0.4494  -0.4463  -0.4447  -0.4393
 -0.4370  -0.4312  -0.4280  -0.4252  -0.4211  -0.4184  -0.4172  -0.4159
 -0.4137  -0.4061  -0.4055  -0.4025  -0.4001  -0.3976  -0.3964  -0.3884
 -0.3871  -0.3823  -0.3802  -0.3792  -0.3782  -0.3749  -0.3723  -0.3672
 -0.3617  -0.3569  -0.3565  -0.3508  -0.3448  -0.3361  -0.3328  -0.3306
 -0.3255  -0.3236  -0.3216  -0.3173  -0.3159  -0.3113  -0.3081  -0.2962
 -0.2902  -0.2843  -0.2615  -0.2493  -0.2444  -0.2408  -0.2354  -0.2294
 -0.2266  -0.2222  -0.2209  -0.2135  -0.2119  -0.2106  -0.2097  -0.2075

 Beta MOs
 -- Occupied --
******** -30.0491 -25.9181 -25.9160 -25.9149 -19.1310 -19.1300 -19.1289
-19.1280 -19.1210 -19.1173 -19.0944 -19.0651 -19.0642 -19.0577 -19.0568
-14.4126 -14.4122 -14.3391 -14.3323 -10.2892 -10.2886 -10.2864 -10.2764
-10.2504 -10.2503 -10.2497 -10.2233 -10.2160 -10.2028 -10.1998 -10.1935
-10.1930 -10.1865 -10.1831 -10.1789 -10.1734 -10.1722 -10.1681 -10.1681
-10.1620  -3.4081  -2.1728  -2.1696  -2.1682  -1.0817  -1.0794  -1.0331
 -1.0208  -1.0071  -1.0062  -1.0042  -1.0033  -1.0006  -0.9221  -0.9189
 -0.9063  -0.9017  -0.8531  -0.8485  -0.7919  -0.7873  -0.7726  -0.7561
 -0.7459  -0.7311  -0.7235  -0.7138  -0.6909  -0.6818  -0.6405  -0.6350
 -0.5985  -0.5896  -0.5684  -0.5577  -0.5487  -0.5339  -0.5276  -0.5187
 -0.5164  -0.5050  -0.4976  -0.4927  -0.4902  -0.4863  -0.4831  -0.4821
 -0.4704  -0.4623  -0.4571  -0.4497  -0.4467  -0.4443  -0.4390  -0.4363
 -0.4285  -0.4264  -0.4203  -0.4180  -0.4152  -0.4090  -0.4058  -0.4036
 -0.4010  -0.3993  -0.3957  -0.3939  -0.3890  -0.3857  -0.3839  -0.3800
 -0.3788  -0.3748  -0.3678  -0.3621  -0.3601  -0.3571  -0.3532  -0.3472
 -0.3372  -0.3326  -0.3286  -0.3258  -0.3236  -0.3198  -0.3173  -0.3136
 -0.3095  -0.3056  -0.3022  -0.3014  -0.2917  -0.2814  -0.2684  -0.2629
 -0.2455  -0.2428  -0.2299  -0.2269  -0.2220  -0.2209  -0.2170  -0.2121
 -0.2108  -0.2089  -0.2023

          Ground-State Mulliken Net Atomic Charges

     Atom                 Charge (a.u.)    Spin (a.u.)
  --------------------------------------------------------
      1 N                    -0.020070       0.014723
      2 C                    -0.000212      -0.000494
      3 H                     0.001978       0.000796
      4 N                    -0.079215       0.013129
      5 H                     0.083703       0.000707
      6 C                     0.096289      -0.000028
      7 O                    -0.441700       0.000099
      8 C                     0.254843       0.003949
      9 O                    -0.394331       0.087295
     10 C                     0.130434       0.002346
     11 C                     0.033845       0.003623
     12 H                     0.056774       0.000967
     13 H                     0.067821      -0.000026
     14 C                    -0.078168       0.024267
     15 H                    -0.017315      -0.000324
     16 C                     0.054244      -0.007125
     17 C                     0.112810       0.007541
     18 H                     0.032002      -0.000424
     19 H                     0.042319       0.001800
     20 C                     0.116855      -0.000765
     21 O                    -0.368862       0.000147
     22 N                    -0.098252       0.000211
     23 H                     0.097575      -0.000158
     24 C                     0.118668      -0.000024
     25 O                    -0.438757       0.000056
     26 C                     0.126096       0.000803
     27 N                    -0.024055       0.018244
     28 C                     0.136162       0.001007
     29 H                     0.038625       0.000516
     30 H                     0.033164       0.000377
     31 C                     0.033503       0.003909
     32 H                     0.072157      -0.000008
     33 H                     0.055030       0.000148
     34 C                    -0.035003       0.001788
     35 H                     0.009494       0.000136
     36 H                     0.007630       0.000250
     37 C                    -0.026242      -0.000050
     38 H                     0.026631      -0.000058
     39 H                     0.008661      -0.000003
     40 C                     0.051559       0.000074
     41 H                    -0.011384       0.000002
     42 H                    -0.010355      -0.000009
     43 C                    -0.000105      -0.000025
     44 H                    -0.005543       0.000020
     45 C                    -0.014801       0.001061
     46 H                     0.013226       0.000068
     47 H                     0.015196       0.000544
     48 C                     0.129037       0.000946
     49 H                     0.047492       0.000715
     50 H                     0.039968       0.000541
     51 C                    -0.005436       0.000012
     52 H                     0.015494      -0.000015
     53 H                     0.001145       0.000012
     54 C                     0.011535       0.000482
     55 H                     0.041262       0.000313
     56 H                    -0.008896       0.000073
     57 O                    -0.442069       0.000704
     58 O                    -0.432568       0.000142
     59 O                    -0.410476       0.114550
     60 Fe                    0.626805       4.177486
     61 O                    -0.430729       0.160547
     62 O                    -0.369582       0.090197
     63 O                    -0.373200       0.098347
     64 O                    -0.426708       0.172750
     65 H                     0.065324       0.000890
     66 H                     0.058675       0.000225
  --------------------------------------------------------
  Sum of atomic charges =    -2.000000

                    Cartesian Multipole Moments
 -----------------------------------------------------------------
    Charge (ESU x 10^10)
                -9.6064
    Dipole Moment (Debye)
         X      -0.0994      Y      18.5549      Z     -13.0688
       Tot      22.6956
    Quadrupole Moments (Debye-Ang)
        XX    -384.3944     XY      -9.1038     YY    -257.1490
        XZ      28.2733     YZ      12.4439     ZZ    -283.5153

 Final energy is -3128.663328841591
	**  OPTIMIZATION CONVERGED  **

             Standard Nuclear Orientation (Angstroms)
    I     Atom           X                Y                Z
 ----------------------------------------------------------------
    1      N      -2.7641350513     1.9762579681    -1.7690689308
    2      C      -3.6960681090    -0.9254210615     1.5867515971
    3      H      -3.2985143037    -0.5238464955     2.5357553536
    4      N      -2.6734314094    -1.7127410561     0.9157488769
    5      H      -2.9869539818    -2.6792079082     0.7867131716
    6      C      -4.8607962479    -1.9038374569     1.9482932964
    7      O      -5.8186011891    -1.3976080842     2.5794575992
    8      C      -1.5522860851    -1.2603377939     0.3463812893
    9      O      -1.2264289394    -0.0295474621     0.5113620347
   10      C      -2.4619164398     2.8429919216    -0.8086257100
   11      C      -3.4488576553     3.8796392387    -0.3612407297
   12      H      -4.2711254488     4.0280625925    -1.0702212409
   13      H      -3.8707299705     3.5805777444     0.6117470618
   14      C      -0.7512971056    -2.1953058742    -0.4103569560
   15      H      -0.9557241899    -3.2571546732    -0.2718976964
   16      C       0.1949459636    -1.8210597030    -1.3411829075
   17      C       1.0304695335    -2.8871881432    -2.0134648947
   18      H       1.0270794192    -2.7279031859    -3.1023910658
   19      H       0.6223836271    -3.8912407917    -1.8210397720
   20      C       2.5079687250    -2.9069979748    -1.5961815244
   21      O       3.3416503859    -3.4863510188    -2.3060485185
   22      N       2.8157652817    -2.2908934159    -0.4416855340
   23      H       2.0987657943    -1.8982737249     0.1688453595
   24      C       4.0524077009    -1.6338979616     1.5661855924
   25      O       5.1417303427    -1.4828313876     2.1710534271
   26      C       2.2472223772     2.3749609634    -1.3272351588
   27      N       2.3820307208     1.8367498595    -0.1206209362
   28      C       3.5947035685     1.6346381057     0.6893005871
   29      H       3.8258133009     2.5640175924     1.2352807161
   30      H       3.2731483231     0.8767869468     1.4130980737
   31      C       3.3619226329     3.1343277970    -1.9823742310
   32      H       3.9556624949     2.4640819813    -2.6231767464
   33      H       2.9106233833     3.9050535884    -2.6214488967
   34      C       4.8424928558     1.1390708277    -0.0612499851
   35      H       5.3509655848     1.9951496594    -0.5260349233
   36      H       5.5220913835     0.7734012459     0.7243484258
   37      C       4.6255738599     0.0371421544    -1.1245515095
   38      H       3.5609670480    -0.0138974837    -1.4066932472
   39      H       5.1566591083     0.3438420112    -2.0397052616
   40      C       5.1069105411    -1.3769270686    -0.7672006347
   41      H       5.2518374397    -1.9389729980    -1.7017394719
   42      H       6.0796922804    -1.3341733958    -0.2528389892
   43      C       4.1544793595    -2.2000822091     0.1205641021
   44      H       4.5827946352    -3.2155458912     0.2012062211
   45      C      -5.1296610758     1.1168066371    -1.4796513649
   46      H      -5.5372763469     1.8772775463    -0.7921258021
   47      H      -5.9646195810     0.8349428610    -2.1425719224
   48      C      -4.0753494409     1.7597176232    -2.3931428394
   49      H      -4.4459575346     2.7158040094    -2.7920686038
   50      H      -3.8566574193     1.1078504100    -3.2481819208
   51      C      -4.6542274482    -0.1041991606    -0.6682212473
   52      H      -3.8295596695    -0.6059252856    -1.2009934690
   53      H      -5.4744966382    -0.8392808189    -0.6076926306
   54      C      -4.2109355558     0.2615932917     0.7531216511
   55      H      -3.4333219925     1.0341810034     0.7162628373
   56      H      -5.0669589689     0.6766334392     1.3082871650
   57      O      -4.7324251033    -3.1014682956     1.5648756928
   58      O       2.8916844190    -1.3723949952     1.9962921417
   59      O       0.4661537049    -0.6021803820    -1.7138362918
   60      Fe     -0.2298055078     1.0753710264    -0.8722312259
   61      O      -1.7985751488     1.0757908939    -2.1156328080
   62      O      -1.3098053087     2.7742734825    -0.2637367535
   63      O       1.1203932786     2.2548741222    -1.9237232945
   64      O       1.2655058721     1.2646500874     0.4132998330
   65      H       4.0305272861     3.6101619388    -1.2544695031
   66      H      -2.9113442653     4.8279431868    -0.2178329570
 ----------------------------------------------------------------

 Total job time:  117713.30s(wall), 1915451.54s(cpu)
        *  Thank you very much for using Q-Chem.  Have a nice day.  *
