 Q-Chem 6.0, Q-Chem, Inc., Pleasanton, CA (2022)
 Q-Chem 6.0.2 for Intel X86 EM64T Linux

User input:
--------------------------------------------------------------
$molecule
-2 6
N   -2.7641351    1.9762580   -1.7690689
C   -3.6960681   -0.9254211    1.5867516
H   -3.2985143   -0.5238465    2.5357554
N   -2.6734314   -1.7127411    0.9157489
H   -2.9869540   -2.6792079    0.7867132
C   -4.8607962   -1.9038375    1.9482933
O   -5.8186012   -1.3976081    2.5794576
C   -1.5522861   -1.2603378    0.3463813
O   -1.2264289   -0.0295475    0.5113620
C   -2.4619164    2.8429919   -0.8086257
C   -3.4488577    3.8796392   -0.3612407
H   -4.2711254    4.0280626   -1.0702212
H   -3.8707300    3.5805777    0.6117471
C   -0.7512971   -2.1953059   -0.4103570
H   -0.9557242   -3.2571547   -0.2718977
C    0.1949460   -1.8210597   -1.3411829
C    1.0304695   -2.8871881   -2.0134649
H    1.0270794   -2.7279032   -3.1023911
H    0.6223836   -3.8912408   -1.8210398
C    2.5079687   -2.9069980   -1.5961815
O    3.3416504   -3.4863510   -2.3060485
N    2.8157653   -2.2908934   -0.4416855
H    2.0987658   -1.8982737    0.1688454
C    4.0524077   -1.6338980    1.5661856
O    5.1417303   -1.4828314    2.1710534
C    2.2472224    2.3749610   -1.3272352
N    2.3820307    1.8367499   -0.1206209
C    3.5947036    1.6346381    0.6893006
H    3.8258133    2.5640176    1.2352807
H    3.2731483    0.8767869    1.4130981
C    3.3619226    3.1343278   -1.9823742
H    3.9556625    2.4640820   -2.6231767
H    2.9106234    3.9050536   -2.6214489
C    4.8424929    1.1390708   -0.0612500
H    5.3509656    1.9951497   -0.5260349
H    5.5220914    0.7734012    0.7243484
C    4.6255739    0.0371422   -1.1245515
H    3.5609670   -0.0138975   -1.4066932
H    5.1566591    0.3438420   -2.0397053
C    5.1069105   -1.3769271   -0.7672006
H    5.2518374   -1.9389730   -1.7017395
H    6.0796923   -1.3341734   -0.2528390
C    4.1544794   -2.2000822    0.1205641
H    4.5827946   -3.2155459    0.2012062
C   -5.1296611    1.1168066   -1.4796514
H   -5.5372763    1.8772775   -0.7921258
H   -5.9646196    0.8349429   -2.1425719
C   -4.0753494    1.7597176   -2.3931428
H   -4.4459575    2.7158040   -2.7920686
H   -3.8566574    1.1078504   -3.2481819
C   -4.6542274   -0.1041992   -0.6682212
H   -3.8295597   -0.6059253   -1.2009935
H   -5.4744966   -0.8392808   -0.6076926
C   -4.2109356    0.2615933    0.7531217
H   -3.4333220    1.0341810    0.7162628
H   -5.0669590    0.6766334    1.3082872
O   -4.7324251   -3.1014683    1.5648757
O    2.8916844   -1.3723950    1.9962921
O    0.4661537   -0.6021804   -1.7138363
Fe   -0.2298055    1.0753710   -0.8722312
O   -1.7985751    1.0757909   -2.1156328
O   -1.3098053    2.7742735   -0.2637368
O    1.1203933    2.2548741   -1.9237233
O    1.2655059    1.2646501    0.4132998
H    4.0305273    3.6101619   -1.2544695
H   -2.9113443    4.8279432   -0.2178330
$end

$rem
BASIS  =  gen
CIS_N_ROOTS  =  100
EXCHANGE  =  CAM-B3LYP
GUI  =  2
JOB_TYPE  =  SP
SCF_CONVERGENCE  =  8
SOLVENT_METHOD  =  PCM
UNRESTRICTED  =  1
BASIS GEN
PURECART 11
$end

$pcm
THEORY  CPCM
$end

$solvent
DIELECTRIC  78.39
$end

$van_der_waals
26   2.44
$end

!----------------------------------------------------------------------
! Basis Set Exchange
! Basis set: aug-cc-pVDZ
!----------------------------------------------------------------------

$basis
H     0
S   4   1.00
1.301000D+01           1.968500D-02
1.962000D+00           1.379770D-01
4.446000D-01           4.781480D-01
1.220000D-01           5.012400D-01
S   1   1.00
1.220000D-01           1.000000D+00
S   1   1.00
0.0297400              1.0000000
P   1   1.00
7.270000D-01           1.0000000
P   1   1.00
0.1410000              1.0000000
****
C     0
S   9   1.00
6.665000D+03           6.920000D-04
1.000000D+03           5.329000D-03
2.280000D+02           2.707700D-02
6.471000D+01           1.017180D-01
2.106000D+01           2.747400D-01
7.495000D+00           4.485640D-01
2.797000D+00           2.850740D-01
5.215000D-01           1.520400D-02
1.596000D-01          -3.191000D-03
S   9   1.00
6.665000D+03          -1.460000D-04
1.000000D+03          -1.154000D-03
2.280000D+02          -5.725000D-03
6.471000D+01          -2.331200D-02
2.106000D+01          -6.395500D-02
7.495000D+00          -1.499810D-01
2.797000D+00          -1.272620D-01
5.215000D-01           5.445290D-01
1.596000D-01           5.804960D-01
S   1   1.00
1.596000D-01           1.000000D+00
S   1   1.00
0.0469000              1.0000000
P   4   1.00
9.439000D+00           3.810900D-02
2.002000D+00           2.094800D-01
5.456000D-01           5.085570D-01
1.517000D-01           4.688420D-01
P   1   1.00
1.517000D-01           1.000000D+00
P   1   1.00
0.0404100              1.0000000
D   1   1.00
5.500000D-01           1.0000000
D   1   1.00
0.1510000              1.0000000
****
N     0
S   9   1.00
9.046000D+03           7.000000D-04
1.357000D+03           5.389000D-03
3.093000D+02           2.740600D-02
8.773000D+01           1.032070D-01
2.856000D+01           2.787230D-01
1.021000D+01           4.485400D-01
3.838000D+00           2.782380D-01
7.466000D-01           1.544000D-02
2.248000D-01          -2.864000D-03
S   9   1.00
9.046000D+03          -1.530000D-04
1.357000D+03          -1.208000D-03
3.093000D+02          -5.992000D-03
8.773000D+01          -2.454400D-02
2.856000D+01          -6.745900D-02
1.021000D+01          -1.580780D-01
3.838000D+00          -1.218310D-01
7.466000D-01           5.490030D-01
2.248000D-01           5.788150D-01
S   1   1.00
2.248000D-01           1.000000D+00
S   1   1.00
0.0612400              1.0000000
P   4   1.00
1.355000D+01           3.991900D-02
2.917000D+00           2.171690D-01
7.973000D-01           5.103190D-01
2.185000D-01           4.622140D-01
P   1   1.00
2.185000D-01           1.000000D+00
P   1   1.00
0.0561100              1.0000000
D   1   1.00
8.170000D-01           1.0000000
D   1   1.00
0.2300000              1.0000000
****
O     0
S   9   1.00
1.172000D+04           7.100000D-04
1.759000D+03           5.470000D-03
4.008000D+02           2.783700D-02
1.137000D+02           1.048000D-01
3.703000D+01           2.830620D-01
1.327000D+01           4.487190D-01
5.025000D+00           2.709520D-01
1.013000D+00           1.545800D-02
3.023000D-01          -2.585000D-03
S   9   1.00
1.172000D+04          -1.600000D-04
1.759000D+03          -1.263000D-03
4.008000D+02          -6.267000D-03
1.137000D+02          -2.571600D-02
3.703000D+01          -7.092400D-02
1.327000D+01          -1.654110D-01
5.025000D+00          -1.169550D-01
1.013000D+00           5.573680D-01
3.023000D-01           5.727590D-01
S   1   1.00
3.023000D-01           1.000000D+00
S   1   1.00
0.0789600              1.0000000
P   4   1.00
1.770000D+01           4.301800D-02
3.854000D+00           2.289130D-01
1.046000D+00           5.087280D-01
2.753000D-01           4.605310D-01
P   1   1.00
2.753000D-01           1.000000D+00
P   1   1.00
0.0685600              1.0000000
D   1   1.00
1.185000D+00           1.0000000
D   1   1.00
0.3320000              1.0000000
****
Fe     0
S   20   1.00
4.316265D+06           8.048803D-06
6.463424D+05           6.258306D-05
1.470897D+05           3.290239D-04
4.166152D+04           1.387355D-03
1.359077D+04           5.023256D-03
4.905750D+03           1.610140D-02
1.912746D+03           4.590034D-02
7.926043D+02           1.136154D-01
3.448065D+02           2.283869D-01
1.558999D+02           3.221159D-01
7.223091D+01           2.383661D-01
3.272506D+01           7.404667D-02
1.566762D+01           9.214197D-02
7.503483D+00           9.339790D-02
3.312223D+00           1.573965D-02
1.558471D+00          -4.186682D-04
6.839140D-01           5.376318D-05
1.467570D-01          -3.816654D-05
7.058300D-02           4.319603D-05
3.144900D-02          -3.401019D-06
S   20   1.00
4.316265D+06          -4.155954D-06
6.463424D+05          -3.231401D-05
1.470897D+05          -1.699525D-04
4.166152D+04          -7.171369D-04
1.359077D+04          -2.603625D-03
4.905750D+03          -8.399109D-03
1.912746D+03          -2.434109D-02
7.926043D+02          -6.251948D-02
3.448065D+02          -1.365929D-01
1.558999D+02          -2.312707D-01
7.223091D+01          -2.383734D-01
3.272506D+01           3.123837D-02
1.566762D+01           5.086818D-01
7.503483D+00           4.987695D-01
3.312223D+00           9.033552D-02
1.558471D+00          -6.005337D-03
6.839140D-01           2.312454D-04
1.467570D-01          -5.643680D-04
7.058300D-02           4.992260D-04
3.144900D-02          -1.015293D-04
S   20   1.00
4.316265D+06           9.532178D-07
6.463424D+05           7.414605D-06
1.470897D+05           3.898393D-05
4.166152D+04           1.647152D-04
1.359077D+04           5.985980D-04
4.905750D+03           1.942390D-03
1.912746D+03           5.687237D-03
7.926043D+02           1.501329D-02
3.448065D+02           3.452455D-02
1.558999D+02           6.495820D-02
7.223091D+01           7.716194D-02
3.272506D+01          -1.873411D-02
1.566762D+01          -3.009185D-01
7.503483D+00          -4.554661D-01
3.312223D+00           1.286463D-01
1.558471D+00           7.183316D-01
6.839140D-01           4.051743D-01
1.467570D-01           2.168227D-02
7.058300D-02          -8.343566D-03
3.144900D-02           3.658979D-03
S   20   1.00
4.316265D+06          -2.063008D-07

             Standard Nuclear Orientation (Angstroms)
    I     Atom           X                Y                Z
 ----------------------------------------------------------------
    1      N      -2.7641351000     1.9762580000    -1.7690689000
    2      C      -3.6960681000    -0.9254211000     1.5867516000
    3      H      -3.2985143000    -0.5238465000     2.5357554000
    4      N      -2.6734314000    -1.7127411000     0.9157489000
    5      H      -2.9869540000    -2.6792079000     0.7867132000
    6      C      -4.8607962000    -1.9038375000     1.9482933000
    7      O      -5.8186012000    -1.3976081000     2.5794576000
    8      C      -1.5522861000    -1.2603378000     0.3463813000
    9      O      -1.2264289000    -0.0295475000     0.5113620000
   10      C      -2.4619164000     2.8429919000    -0.8086257000
   11      C      -3.4488577000     3.8796392000    -0.3612407000
   12      H      -4.2711254000     4.0280626000    -1.0702212000
   13      H      -3.8707300000     3.5805777000     0.6117471000
   14      C      -0.7512971000    -2.1953059000    -0.4103570000
   15      H      -0.9557242000    -3.2571547000    -0.2718977000
   16      C       0.1949460000    -1.8210597000    -1.3411829000
   17      C       1.0304695000    -2.8871881000    -2.0134649000
   18      H       1.0270794000    -2.7279032000    -3.1023911000
   19      H       0.6223836000    -3.8912408000    -1.8210398000
   20      C       2.5079687000    -2.9069980000    -1.5961815000
   21      O       3.3416504000    -3.4863510000    -2.3060485000
   22      N       2.8157653000    -2.2908934000    -0.4416855000
   23      H       2.0987658000    -1.8982737000     0.1688454000
   24      C       4.0524077000    -1.6338980000     1.5661856000
   25      O       5.1417303000    -1.4828314000     2.1710534000
   26      C       2.2472224000     2.3749610000    -1.3272352000
   27      N       2.3820307000     1.8367499000    -0.1206209000
   28      C       3.5947036000     1.6346381000     0.6893006000
   29      H       3.8258133000     2.5640176000     1.2352807000
   30      H       3.2731483000     0.8767869000     1.4130981000
   31      C       3.3619226000     3.1343278000    -1.9823742000
   32      H       3.9556625000     2.4640820000    -2.6231767000
   33      H       2.9106234000     3.9050536000    -2.6214489000
   34      C       4.8424929000     1.1390708000    -0.0612500000
   35      H       5.3509656000     1.9951497000    -0.5260349000
   36      H       5.5220914000     0.7734012000     0.7243484000
   37      C       4.6255739000     0.0371422000    -1.1245515000
   38      H       3.5609670000    -0.0138975000    -1.4066932000
   39      H       5.1566591000     0.3438420000    -2.0397053000
   40      C       5.1069105000    -1.3769271000    -0.7672006000
   41      H       5.2518374000    -1.9389730000    -1.7017395000
   42      H       6.0796923000    -1.3341734000    -0.2528390000
   43      C       4.1544794000    -2.2000822000     0.1205641000
   44      H       4.5827946000    -3.2155459000     0.2012062000
   45      C      -5.1296611000     1.1168066000    -1.4796514000
   46      H      -5.5372763000     1.8772775000    -0.7921258000
   47      H      -5.9646196000     0.8349429000    -2.1425719000
   48      C      -4.0753494000     1.7597176000    -2.3931428000
   49      H      -4.4459575000     2.7158040000    -2.7920686000
   50      H      -3.8566574000     1.1078504000    -3.2481819000
   51      C      -4.6542274000    -0.1041992000    -0.6682212000
   52      H      -3.8295597000    -0.6059253000    -1.2009935000
   53      H      -5.4744966000    -0.8392808000    -0.6076926000
   54      C      -4.2109356000     0.2615933000     0.7531217000
   55      H      -3.4333220000     1.0341810000     0.7162628000
   56      H      -5.0669590000     0.6766334000     1.3082872000
   57      O      -4.7324251000    -3.1014683000     1.5648757000
   58      O       2.8916844000    -1.3723950000     1.9962921000
   59      O       0.4661537000    -0.6021804000    -1.7138363000
   60      Fe     -0.2298055000     1.0753710000    -0.8722312000
   61      O      -1.7985751000     1.0757909000    -2.1156328000
   62      O      -1.3098053000     2.7742735000    -0.2637368000
   63      O       1.1203933000     2.2548741000    -1.9237233000
   64      O       1.2655059000     1.2646501000     0.4132998000
   65      H       4.0305273000     3.6101619000    -1.2544695000
   66      H      -2.9113443000     4.8279432000    -0.2178330000
 ----------------------------------------------------------------

   20   -3127.9178190445      7.01e-09  Convergence criterion met
 Total energy in the final basis set =    -3127.9178190445

         TDDFT/TDA Excitation Energies
 ---------------------------------------------------

 Excited state   1: excitation energy (eV) =    2.3182
 Total energy for state  1:                 -3127.83262801 au
    <S**2>     :  8.8120
    Trans. Mom.: -0.1954 X  -0.0773 Y   0.0144 Z
    Strength   :     0.0025194540
    D(  145) --> S(    1) amplitude = -0.4566 beta
    D(  145) --> S(    2) amplitude =  0.2824 beta
    D(  146) --> S(    1) amplitude = -0.2278 beta
    D(  147) --> S(    1) amplitude =  0.6673 beta
    D(  147) --> S(    2) amplitude = -0.3941 beta

 Excited state   2: excitation energy (eV) =    2.4137
 Total energy for state  2:                 -3127.82911614 au
    <S**2>     :  8.8110
    Trans. Mom.:  0.2867 X  -0.0949 Y   0.0844 Z
    Strength   :     0.0058154052
    D(  145) --> S(    1) amplitude = -0.2109 beta
    D(  145) --> S(    2) amplitude =  0.3392 beta
    D(  146) --> S(    1) amplitude =  0.7445 beta
    D(  146) --> S(    2) amplitude = -0.4285 beta
    D(  147) --> S(    2) amplitude = -0.2229 beta

 Excited state   3: excitation energy (eV) =    2.4464
 Total energy for state  3:                 -3127.82791466 au
    <S**2>     :  8.8052
    Trans. Mom.: -0.6104 X  -0.0406 Y  -0.1648 Z
    Strength   :     0.0240595011
    D(  145) --> S(    1) amplitude = -0.2718 beta
    D(  145) --> S(    2) amplitude = -0.2954 beta
    D(  146) --> S(    2) amplitude = -0.4761 beta
    D(  147) --> S(    1) amplitude =  0.3790 beta
    D(  147) --> S(    2) amplitude =  0.6185 beta

 Excited state   4: excitation energy (eV) =    2.5437
 Total energy for state  4:                 -3127.82434067 au
    <S**2>     :  8.7914
    Trans. Mom.:  0.2783 X   0.0537 Y   0.0696 Z
    Strength   :     0.0053062696
    D(  145) --> S(    2) amplitude = -0.2541 beta
    D(  145) --> S(    3) amplitude =  0.3781 beta
    D(  146) --> S(    1) amplitude =  0.3648 beta
    D(  146) --> S(    2) amplitude =  0.5661 beta
    D(  146) --> S(    3) amplitude =  0.1572 beta
    D(  147) --> S(    3) amplitude = -0.5037 beta

 Excited state   5: excitation energy (eV) =    2.6560
 Total energy for state  5:                 -3127.82021328 au
    <S**2>     :  8.7836
    Trans. Mom.: -0.7604 X  -0.1298 Y  -0.1163 Z
    Strength   :     0.0396035485
    D(  145) --> S(    3) amplitude = -0.4842 beta
    D(  146) --> S(    1) amplitude =  0.2183 beta
    D(  146) --> S(    2) amplitude =  0.2208 beta
    D(  146) --> S(    3) amplitude =  0.6719 beta
    D(  147) --> S(    3) amplitude =  0.3552 beta

 Excited state   6: excitation energy (eV) =    2.7594
 Total energy for state  6:                 -3127.81641266 au
    <S**2>     :  8.8172
    Trans. Mom.: -0.1079 X   0.6114 Y  -0.1990 Z
    Strength   :     0.0287314183
    D(  145) --> S(    2) amplitude =  0.1863 beta
    D(  146) --> S(    1) amplitude = -0.3397 beta
    D(  146) --> S(    2) amplitude = -0.2716 beta
    D(  146) --> S(    3) amplitude =  0.5776 beta
    D(  147) --> S(    1) amplitude = -0.2472 beta
    D(  147) --> S(    2) amplitude = -0.1669 beta
    D(  147) --> S(    3) amplitude = -0.5209 beta

 Excited state   7: excitation energy (eV) =    3.0734
 Total energy for state  7:                 -3127.80487268 au
    <S**2>     :  9.2927
    Trans. Mom.: -0.0797 X  -0.0458 Y   0.1433 Z
    Strength   :     0.0021808371
    S(    5) --> V(    2) amplitude =  0.1912 alpha
    D(  145) --> S(    1) amplitude =  0.6764 beta
    D(  145) --> S(    2) amplitude =  0.1818 beta
    D(  147) --> S(    1) amplitude =  0.4662 beta

 Excited state   8: excitation energy (eV) =    3.1446
 Total energy for state  8:                 -3127.80225643 au
    <S**2>     :  8.8101
    Trans. Mom.:  0.0606 X   0.0935 Y   0.0509 Z
    Strength   :     0.0011555417
    D(  136) --> S(    2) amplitude =  0.1560 beta
    D(  145) --> S(    2) amplitude =  0.6803 beta
    D(  146) --> S(    2) amplitude =  0.2531 beta
    D(  147) --> S(    2) amplitude =  0.5655 beta

 Excited state   9: excitation energy (eV) =    3.4013
 Total energy for state  9:                 -3127.79282259 au
    <S**2>     :  8.8801
    Trans. Mom.:  0.0405 X  -0.1042 Y  -0.0018 Z
    Strength   :     0.0010418168
    D(  145) --> S(    3) amplitude =  0.6903 beta
    D(  146) --> S(    3) amplitude =  0.2978 beta
    D(  147) --> S(    3) amplitude =  0.4950 beta

 Excited state  10: excitation energy (eV) =    3.6251
 Total energy for state 10:                 -3127.78459985 au
    <S**2>     :  9.3212
    Trans. Mom.: -0.1311 X  -0.2090 Y   0.0644 Z
    Strength   :     0.0057724076
    S(    5) --> V(    2) amplitude = -0.2833 alpha
    S(    5) --> V(    5) amplitude = -0.1992 alpha
    D(  145) --> S(    1) amplitude =  0.1622 beta
    D(  145) --> S(    4) amplitude = -0.3358 beta
    D(  145) --> V(    5) amplitude =  0.1534 beta
    D(  145) --> V(    7) amplitude =  0.2060 beta
    D(  147) --> S(    4) amplitude =  0.6424 beta
    D(  147) --> S(    5) amplitude =  0.1995 beta

 Excited state  11: excitation energy (eV) =    3.6687
 Total energy for state 11:                 -3127.78299586 au
    <S**2>     :  9.4418
    Trans. Mom.: -0.0757 X  -0.0049 Y   0.0913 Z
    Strength   :     0.0012672830
    S(    5) --> V(    2) amplitude = -0.3215 alpha
    S(    5) --> V(    5) amplitude = -0.2261 alpha
    D(  145) --> S(    1) amplitude =  0.1740 beta
    D(  145) --> S(    4) amplitude =  0.4405 beta
    D(  146) --> S(    4) amplitude =  0.1868 beta
    D(  147) --> S(    4) amplitude = -0.4390 beta
    D(  147) --> S(    5) amplitude =  0.2101 beta
    D(  147) --> V(    1) amplitude = -0.1521 beta
    D(  147) --> V(    5) amplitude =  0.1682 beta
    D(  147) --> V(    7) amplitude =  0.2627 beta

 Excited state  12: excitation energy (eV) =    3.7476
 Total energy for state 12:                 -3127.78009720 au
    <S**2>     :  8.8172
    Trans. Mom.:  0.0630 X   0.0602 Y  -0.0361 Z
    Strength   :     0.0008169167
    D(  145) --> S(    4) amplitude = -0.2977 beta
    D(  146) --> S(    4) amplitude =  0.8414 beta
    D(  146) --> S(    5) amplitude = -0.2767 beta

 Excited state  13: excitation energy (eV) =    3.8743
 Total energy for state 13:                 -3127.77544101 au
    <S**2>     :  8.8327
    Trans. Mom.: -0.2866 X   0.0680 Y  -0.0673 Z
    Strength   :     0.0086658165
    D(  145) --> S(    5) amplitude = -0.3175 beta
    D(  145) --> V(    1) amplitude =  0.1548 beta
    D(  146) --> S(    4) amplitude = -0.2863 beta
    D(  146) --> S(    5) amplitude = -0.4157 beta
    D(  146) --> V(    1) amplitude =  0.1974 beta
    D(  147) --> S(    5) amplitude =  0.5225 beta
    D(  147) --> V(    1) amplitude = -0.2476 beta
    D(  147) --> V(    5) amplitude = -0.1671 beta

 Excited state  14: excitation energy (eV) =    3.9322
 Total energy for state 14:                 -3127.77331418 au
    <S**2>     :  8.8457
    Trans. Mom.: -0.0211 X  -0.0140 Y  -0.0376 Z
    Strength   :     0.0001983391
    D(  145) --> S(    5) amplitude = -0.4393 beta
    D(  145) --> V(    1) amplitude =  0.2116 beta
    D(  146) --> S(    5) amplitude =  0.5690 beta
    D(  146) --> V(    1) amplitude = -0.2671 beta
    D(  146) --> V(    5) amplitude = -0.1841 beta
    D(  147) --> S(    5) amplitude =  0.2258 beta

 Excited state  15: excitation energy (eV) =    3.9448
 Total energy for state 15:                 -3127.77284877 au
    <S**2>     :  8.8062
    Trans. Mom.: -0.0040 X   0.0837 Y   0.0384 Z
    Strength   :     0.0008201820
    D(  134) --> S(    1) amplitude = -0.1810 beta
    D(  134) --> S(    2) amplitude =  0.2063 beta
    D(  135) --> S(    1) amplitude = -0.4565 beta
    D(  135) --> S(    2) amplitude =  0.4813 beta
    D(  137) --> S(    1) amplitude =  0.2172 beta
    D(  137) --> S(    2) amplitude = -0.2275 beta
    D(  138) --> S(    1) amplitude =  0.2725 beta
    D(  138) --> S(    2) amplitude = -0.2875 beta

 Excited state  16: excitation energy (eV) =    4.0403
 Total energy for state 16:                 -3127.76934156 au
    <S**2>     :  8.8268
    Trans. Mom.:  0.1477 X   0.0885 Y  -0.0153 Z
    Strength   :     0.0029574557
    D(  135) --> S(    1) amplitude =  0.5325 beta
    D(  135) --> S(    2) amplitude =  0.4673 beta
    D(  136) --> S(    1) amplitude =  0.1617 beta
    D(  137) --> S(    1) amplitude = -0.2246 beta
    D(  137) --> S(    2) amplitude = -0.2097 beta
    D(  138) --> S(    1) amplitude = -0.3069 beta
    D(  138) --> S(    2) amplitude = -0.2754 beta

 Excited state  17: excitation energy (eV) =    4.1506
 Total energy for state 17:                 -3127.76528900 au
    <S**2>     : 10.4731
    Trans. Mom.:  0.0289 X   0.0149 Y  -0.0279 Z
    Strength   :     0.0001866327
    S(    3) --> V(   15) amplitude = -0.1623 alpha
    S(    3) --> V(   16) amplitude =  0.3275 alpha
    S(    3) --> V(   17) amplitude = -0.2569 alpha
    S(    3) --> V(   20) amplitude =  0.2038 alpha
    D(  145) --> V(   16) amplitude = -0.2044 beta
    D(  145) --> V(   17) amplitude =  0.2106 beta
    D(  145) --> V(   20) amplitude = -0.2285 beta
    D(  147) --> V(   16) amplitude =  0.1828 beta
    D(  147) --> V(   17) amplitude = -0.1901 beta
    D(  147) --> V(   20) amplitude =  0.2031 beta

 Excited state  18: excitation energy (eV) =    4.1715
 Total energy for state 18:                 -3127.76451906 au
    <S**2>     :  8.8464
    Trans. Mom.: -0.2107 X  -0.0215 Y   0.0749 Z
    Strength   :     0.0051578547
    D(  134) --> S(    1) amplitude =  0.8369 beta
    D(  136) --> S(    1) amplitude = -0.2244 beta

 Excited state  19: excitation energy (eV) =    4.1964
 Total energy for state 19:                 -3127.76360379 au
    <S**2>     : 10.4579
    Trans. Mom.: -0.0392 X   0.0106 Y   0.0257 Z
    Strength   :     0.0002371833
    S(    4) --> V(   16) amplitude = -0.2996 alpha
    S(    4) --> V(   17) amplitude = -0.2908 alpha
    S(    4) --> V(   18) amplitude =  0.1994 alpha
    S(    4) --> V(   19) amplitude = -0.2111 alpha
    S(    4) --> V(   21) amplitude = -0.1582 alpha
    D(  146) --> V(   16) amplitude =  0.2534 beta
    D(  146) --> V(   17) amplitude =  0.1728 beta
    D(  146) --> V(   18) amplitude = -0.2268 beta
    D(  146) --> V(   19) amplitude = -0.1543 beta
    D(  146) --> V(   21) amplitude =  0.2029 beta
    D(  146) --> V(   22) amplitude =  0.2012 beta
    D(  146) --> V(   26) amplitude =  0.1864 beta

 Excited state  20: excitation energy (eV) =    4.2177
 Total energy for state 20:                 -3127.76282228 au
    <S**2>     :  8.8066
    Trans. Mom.:  0.1894 X   0.1792 Y  -0.0600 Z
    Strength   :     0.0073948193
    D(  134) --> S(    1) amplitude = -0.1558 beta
    D(  135) --> S(    3) amplitude =  0.6795 beta
    D(  136) --> S(    3) amplitude =  0.2334 beta
    D(  137) --> S(    3) amplitude = -0.2705 beta
    D(  138) --> S(    3) amplitude = -0.3740 beta

 Excited state  21: excitation energy (eV) =    4.2837
 Total energy for state 21:                 -3127.76039582 au
    <S**2>     :  8.8011
    Trans. Mom.: -0.0437 X   0.0393 Y  -0.0532 Z
    Strength   :     0.0006595315
    D(  134) --> S(    2) amplitude =  0.8229 beta
    D(  135) --> S(    2) amplitude = -0.2497 beta
    D(  136) --> S(    2) amplitude = -0.2569 beta

 Excited state  22: excitation energy (eV) =    4.3398
 Total energy for state 22:                 -3127.75833342 au
    <S**2>     :  8.8162
    Trans. Mom.:  0.1723 X  -0.1387 Y  -0.1274 Z
    Strength   :     0.0069281229
    D(  134) --> S(    3) amplitude =  0.3332 beta
    D(  145) --> S(    4) amplitude =  0.5989 beta
    D(  145) --> S(    5) amplitude = -0.1969 beta
    D(  146) --> S(    4) amplitude =  0.2350 beta
    D(  147) --> S(    4) amplitude =  0.4647 beta

 Excited state  23: excitation energy (eV) =    4.3892
 Total energy for state 23:                 -3127.75651719 au
    <S**2>     :  8.7853
    Trans. Mom.:  0.0722 X  -0.0928 Y  -0.0345 Z
    Strength   :     0.0016150829
    D(  134) --> S(    3) amplitude = -0.7390 beta
    D(  145) --> S(    4) amplitude =  0.2564 beta
    D(  147) --> S(    4) amplitude =  0.2011 beta

 Excited state  24: excitation energy (eV) =    4.5517
 Total energy for state 24:                 -3127.75054561 au
    <S**2>     :  8.8671
    Trans. Mom.:  0.0804 X   0.0693 Y  -0.0625 Z
    Strength   :     0.0016908681
    D(  123) --> S(    1) amplitude =  0.1560 beta
    D(  124) --> S(    1) amplitude =  0.2264 beta
    D(  129) --> S(    1) amplitude = -0.2873 beta
    D(  130) --> S(    1) amplitude =  0.1746 beta
    D(  132) --> S(    1) amplitude =  0.3561 beta
    D(  133) --> S(    1) amplitude =  0.5092 beta
    D(  134) --> S(    3) amplitude = -0.1987 beta
    D(  136) --> S(    1) amplitude =  0.3417 beta
    D(  139) --> S(    1) amplitude =  0.2237 beta

 Excited state  25: excitation energy (eV) =    4.6190
 Total energy for state 25:                 -3127.74807503 au
    <S**2>     :  9.0188
    Trans. Mom.:  0.1068 X   0.1818 Y  -0.0706 Z
    Strength   :     0.0055942362
    D(  124) --> S(    1) amplitude = -0.1502 beta
    D(  129) --> S(    1) amplitude =  0.2310 beta
    D(  130) --> S(    1) amplitude = -0.2310 beta
    D(  131) --> S(    1) amplitude = -0.2140 beta
    D(  132) --> S(    1) amplitude = -0.3508 beta
    D(  134) --> S(    1) amplitude =  0.2027 beta
    D(  135) --> S(    1) amplitude = -0.1555 beta
    D(  136) --> S(    1) amplitude =  0.5322 beta
    D(  139) --> S(    1) amplitude =  0.3680 beta

 Excited state  26: excitation energy (eV) =    4.6727
 Total energy for state 26:                 -3127.74610111 au
    <S**2>     :  8.8993
    Trans. Mom.:  0.2067 X   0.2351 Y  -0.1091 Z
    Strength   :     0.0125807855
    D(  133) --> S(    2) amplitude =  0.4186 beta
    D(  134) --> S(    2) amplitude =  0.1861 beta
    D(  136) --> S(    2) amplitude =  0.5966 beta
    D(  139) --> S(    2) amplitude =  0.4056 beta

 Excited state  27: excitation energy (eV) =    4.7193
 Total energy for state 27:                 -3127.74438654 au
    <S**2>     :  8.7908
    Trans. Mom.: -0.1297 X  -0.0732 Y   0.1699 Z
    Strength   :     0.0059028462
    D(  124) --> S(    2) amplitude =  0.1948 beta
    D(  129) --> S(    2) amplitude = -0.2819 beta
    D(  129) --> S(    3) amplitude =  0.2009 beta
    D(  130) --> S(    2) amplitude =  0.2843 beta
    D(  130) --> S(    3) amplitude = -0.1550 beta
    D(  131) --> S(    2) amplitude =  0.2249 beta
    D(  132) --> S(    2) amplitude =  0.3747 beta
    D(  132) --> S(    3) amplitude = -0.2426 beta
    D(  133) --> S(    2) amplitude =  0.3712 beta
    D(  133) --> S(    3) amplitude = -0.2405 beta
    D(  134) --> S(    3) amplitude = -0.2293 beta
    D(  136) --> S(    2) amplitude = -0.1655 beta

 Excited state  28: excitation energy (eV) =    4.7406
 Total energy for state 28:                 -3127.74360352 au
    <S**2>     :  8.7884
    Trans. Mom.:  0.3439 X  -0.0710 Y  -0.3676 Z
    Strength   :     0.0300144039
    S(    5) --> V(    2) amplitude =  0.1626 alpha
    D(  129) --> S(    2) amplitude = -0.1705 beta
    D(  130) --> S(    2) amplitude =  0.1607 beta
    D(  131) --> S(    2) amplitude =  0.1974 beta
    D(  132) --> S(    2) amplitude =  0.2274 beta
    D(  132) --> S(    3) amplitude =  0.1757 beta
    D(  133) --> S(    2) amplitude =  0.1745 beta
    D(  133) --> S(    3) amplitude =  0.2523 beta
    D(  134) --> S(    2) amplitude = -0.1547 beta
    D(  136) --> S(    2) amplitude = -0.1541 beta
    D(  136) --> S(    3) amplitude =  0.1988 beta
    D(  145) --> S(    5) amplitude =  0.3457 beta
    D(  145) --> V(    1) amplitude = -0.1718 beta
    D(  147) --> S(    5) amplitude =  0.3438 beta
    D(  147) --> V(    1) amplitude = -0.1649 beta

 Excited state  29: excitation energy (eV) =    4.7686
 Total energy for state 29:                 -3127.74257534 au
    <S**2>     :  8.7916
    Trans. Mom.:  0.4556 X   0.0647 Y  -0.2890 Z
    Strength   :     0.0345009906
    S(    5) --> V(    2) amplitude =  0.1536 alpha
    D(  124) --> S(    3) amplitude = -0.2242 beta
    D(  129) --> S(    3) amplitude =  0.2835 beta
    D(  130) --> S(    3) amplitude = -0.1997 beta
    D(  131) --> S(    1) amplitude = -0.1977 beta
    D(  131) --> S(    3) amplitude = -0.1671 beta
    D(  132) --> S(    3) amplitude = -0.3887 beta
    D(  133) --> S(    3) amplitude = -0.2393 beta
    D(  145) --> S(    5) amplitude =  0.3344 beta
    D(  145) --> V(    1) amplitude = -0.1650 beta
    D(  147) --> S(    5) amplitude =  0.2686 beta

 Excited state  30: excitation energy (eV) =    4.8443
 Total energy for state 30:                 -3127.73979352 au
    <S**2>     :  8.8544
    Trans. Mom.: -0.0180 X  -0.0209 Y  -0.0118 Z
    Strength   :     0.0001071096
    D(  131) --> S(    3) amplitude = -0.1972 beta
    D(  133) --> S(    3) amplitude =  0.2429 beta
    D(  134) --> S(    3) amplitude =  0.2117 beta
    D(  135) --> S(    3) amplitude = -0.1698 beta
    D(  136) --> S(    3) amplitude =  0.5606 beta
    D(  139) --> S(    3) amplitude =  0.3929 beta
    D(  145) --> S(    5) amplitude = -0.1515 beta

 Excited state  31: excitation energy (eV) =    4.9138
 Total energy for state 31:                 -3127.73724044 au
    <S**2>     :  8.7902
    Trans. Mom.: -0.0717 X  -0.0072 Y   0.0331 Z
    Strength   :     0.0007572223
    D(  130) --> S(    2) amplitude = -0.2497 beta
    D(  131) --> S(    2) amplitude =  0.7769 beta
    D(  132) --> S(    2) amplitude = -0.2913 beta
    D(  134) --> S(    2) amplitude =  0.1854 beta
    D(  136) --> S(    2) amplitude =  0.1608 beta

 Excited state  32: excitation energy (eV) =    4.9359
 Total energy for state 32:                 -3127.73642979 au
    <S**2>     :  8.8837
    Trans. Mom.: -0.0670 X  -0.0724 Y  -0.0060 Z
    Strength   :     0.0011808264
    D(  124) --> S(    1) amplitude = -0.1851 beta

 Excited state 100: excitation energy (eV) =    6.1718

                    Orbital Energies (a.u.)
 --------------------------------------------------------------

 Alpha MOs
 -- Occupied --
******** -30.2393 -26.0948 -26.0918 -26.0900 -19.2165 -19.2158 -19.2144
-19.2144 -19.2094 -19.2039 -19.1883 -19.1698 -19.1663 -19.1651 -19.1628
-14.4915 -14.4913 -14.4219 -14.4180 -10.3715 -10.3693 -10.3687 -10.3648
-10.3497 -10.3469 -10.3326 -10.2943 -10.2886 -10.2880 -10.2846 -10.2644
-10.2643 -10.2638 -10.2538 -10.2504 -10.2456 -10.2444 -10.2435 -10.2432
-10.2391  -3.7323  -2.5118  -2.5053  -2.5023  -1.1747  -1.1721  -1.1308
 -1.1205  -1.1140  -1.1102  -1.1004  -1.0995  -1.0975  -1.0279  -1.0235
 -1.0036  -0.9982  -0.9427  -0.9383  -0.8811  -0.8763  -0.8619  -0.8446
 -0.8329  -0.8174  -0.8094  -0.7997  -0.7771  -0.7683  -0.7250  -0.7199
 -0.6825  -0.6732  -0.6561  -0.6442  -0.6335  -0.6210  -0.6135  -0.6070
 -0.6065  -0.5943  -0.5888  -0.5783  -0.5750  -0.5694  -0.5663  -0.5648
 -0.5584  -0.5500  -0.5461  -0.5361  -0.5312  -0.5287  -0.5271  -0.5248
 -0.5196  -0.5180  -0.5135  -0.5084  -0.5041  -0.5038  -0.5003  -0.4924
 -0.4909  -0.4847  -0.4839  -0.4817  -0.4797  -0.4743  -0.4730  -0.4706
 -0.4687  -0.4656  -0.4609  -0.4592  -0.4582  -0.4516  -0.4469  -0.4444
 -0.4387  -0.4357  -0.4339  -0.4233  -0.4194  -0.4105  -0.4057  -0.4020
 -0.3932  -0.3924  -0.3904  -0.3864  -0.3851  -0.3834  -0.3766  -0.3695
 -0.3623  -0.3578  -0.3372  -0.3299  -0.3252  -0.3204  -0.3162  -0.3123
 -0.3118  -0.3088  -0.3082  -0.3059  -0.3030  -0.2772  -0.2764  -0.2719

 Beta MOs
 -- Occupied --
******** -30.1437 -26.0144 -26.0126 -26.0115 -19.2132 -19.2114 -19.2110
-19.2093 -19.2063 -19.2002 -19.1883 -19.1698 -19.1663 -19.1651 -19.1628
-14.4913 -14.4910 -14.4217 -14.4180 -10.3715 -10.3694 -10.3688 -10.3648
-10.3497 -10.3469 -10.3327 -10.2942 -10.2885 -10.2880 -10.2846 -10.2643
-10.2641 -10.2637 -10.2538 -10.2504 -10.2456 -10.2444 -10.2435 -10.2432
-10.2388  -3.5109  -2.2727  -2.2697  -2.2682  -1.1696  -1.1671  -1.1264
 -1.1204  -1.1135  -1.1101  -1.0937  -1.0928  -1.0906  -1.0276  -1.0235
 -1.0019  -0.9981  -0.9378  -0.9333  -0.8805  -0.8758  -0.8607  -0.8440
 -0.8320  -0.8163  -0.8079  -0.7987  -0.7766  -0.7678  -0.7239  -0.7192
 -0.6804  -0.6725  -0.6537  -0.6403  -0.6324  -0.6102  -0.6071  -0.6034
 -0.5978  -0.5862  -0.5752  -0.5711  -0.5689  -0.5635  -0.5616  -0.5599
 -0.5538  -0.5443  -0.5420  -0.5294  -0.5272  -0.5259  -0.5207  -0.5116
 -0.5081  -0.5024  -0.5009  -0.4921  -0.4904  -0.4853  -0.4834  -0.4815
 -0.4788  -0.4740  -0.4724  -0.4717  -0.4677  -0.4649  -0.4622  -0.4598
 -0.4585  -0.4476  -0.4439  -0.4402  -0.4378  -0.4350  -0.4236  -0.4223
 -0.4113  -0.4050  -0.3993  -0.3946  -0.3919  -0.3881  -0.3861  -0.3825
 -0.3797  -0.3767  -0.3744  -0.3718  -0.3645  -0.3516  -0.3420  -0.3359
 -0.3262  -0.3233  -0.3197  -0.3121  -0.3095  -0.3083  -0.3067  -0.3032
 -0.2805  -0.2736  -0.2659

          Ground-State Mulliken Net Atomic Charges

     Atom                 Charge (a.u.)    Spin (a.u.)
  --------------------------------------------------------
      1 N                     1.274849       0.018286
      2 C                     1.363673      -0.003910
      3 H                    -0.630460      -0.000262
      4 N                     0.064971       0.006255
      5 H                    -0.054104       0.000558
      6 C                     0.923591      -0.000925
      7 O                    -0.880757       0.000074
      8 C                    -1.116424      -0.000262
      9 O                    -0.685319       0.097750
     10 C                    -0.849998      -0.018653
     11 C                     1.580302       0.004884
     12 H                    -0.401953       0.000198
     13 H                    -0.138978       0.000289
     14 C                     2.927438       0.039929
     15 H                    -1.500218      -0.000782
     16 C                    -0.213377      -0.024721
     17 C                     0.742741       0.016003
     18 H                    -0.354359       0.000384
     19 H                    -0.440640       0.000985
     20 C                     0.507067       0.000007
     21 O                    -0.914589      -0.000003
     22 N                     0.130834      -0.001012
     23 H                    -0.105671       0.001239
     24 C                     0.819611       0.000018
     25 O                    -0.943259       0.000085
     26 C                    -0.475600      -0.026583
     27 N                     0.353698       0.023803
     28 C                     1.510193      -0.002033
     29 H                    -0.523557       0.000258
     30 H                    -0.904841      -0.001392
     31 C                     1.546888       0.005953
     32 H                    -0.056552       0.000319
     33 H                    -0.568844       0.000093
     34 C                     1.086990       0.002502
     35 H                    -0.635745      -0.000147
     36 H                    -0.550007       0.000018
     37 C                     2.040570      -0.000236
     38 H                    -0.994045       0.001249
     39 H                    -0.765494      -0.000256
     40 C                     1.058496      -0.000020
     41 H                    -0.462358       0.000007
     42 H                    -0.562470       0.000015
     43 C                     0.762831      -0.000308
     44 H                    -0.637951      -0.000038
     45 C                     1.299356       0.000850
     46 H                    -0.473466       0.000021
     47 H                    -0.517159       0.000145
     48 C                     0.976121       0.000460
     49 H                    -0.594791       0.000952
     50 H                    -0.751353       0.000267
     51 C                     1.962042      -0.001807
     52 H                    -0.522500      -0.001115
     53 H                    -0.676217      -0.000150
     54 C                     0.413237       0.005385
     55 H                    -0.906636       0.002529
     56 H                    -0.596353       0.000002
     57 O                    -0.894260       0.000373
     58 O                    -0.870455      -0.000378
     59 O                    -0.944576       0.123718
     60 Fe                    3.013158       4.233572
     61 O                    -1.219178       0.146204
     62 O                    -0.749927       0.091740
     63 O                    -0.762214       0.099802
     64 O                    -0.882952       0.157100
     65 H                    -0.204247       0.000379
     66 H                    -0.424804       0.000333
  --------------------------------------------------------
  Sum of atomic charges =    -2.000000

                    Cartesian Multipole Moments
 -----------------------------------------------------------------
    Charge (ESU x 10^10)
                -9.6064
    Dipole Moment (Debye)
         X       0.3421      Y      19.8382      Z     -14.5445
       Tot      24.6011
    Quadrupole Moments (Debye-Ang)
        XX    -398.6246     XY     -11.7304     YY    -265.7525
        XZ      28.9768     YZ      14.1860     ZZ    -295.7269

 Total job time:  332309.30s(wall), 5942338.35s(cpu)
        *  Thank you very much for using Q-Chem.  Have a nice day.  *
