 Q-Chem 6.0, Q-Chem, Inc., Pleasanton, CA (2022)
 Q-Chem 6.0.2 for Intel X86 EM64T Linux

User input:
--------------------------------------------------------------
$molecule
-2 6
N   -1.5516640   -1.9590185    1.6933385
C   -4.4772349    2.2919230   -0.5359775
H   -5.2104977    2.5595949   -1.3278922
N   -3.1290545    2.4332358   -1.0786952
H   -2.4590576    3.0633377   -0.6141248
C   -4.7236171    3.2433796    0.6243315
O   -5.8284097    3.2820970    1.1428998
C   -2.6858120    1.7848543   -2.1909104
O   -3.4259495    1.0577861   -2.8410641
C   -1.5746854   -2.8549301    0.5563908
C   -2.2862071   -4.1844489    0.6044844
H   -1.9051541   -4.8036467    1.4426668
H   -3.3817639   -4.0460522    0.7268172
H   -2.1273323   -4.7349378   -0.3479300
C   -1.2568298    1.9790893   -2.6146333
H   -1.1042621    3.0789198   -2.6786828
H   -1.0747553    1.6109915   -3.6578639
C   -0.3363038    1.2879354   -1.5933036
C    0.7134522    1.9461876   -1.0652501
H    0.8822439    2.9814210   -1.3743005
C    1.6598598    1.3969376   -0.0487121
O    1.5306557    0.2701534    0.4149468
N    2.7097650    2.1970888    0.3352014
H    2.8539102    3.0613328   -0.2107352
C    5.0863825    1.7966207    1.0248196
O    6.0847818    1.9488475    1.9211260
N    2.4301057   -2.7445617    0.5603547
C    2.5606443   -2.2284524   -0.7928852
C    3.7786945   -2.4954005   -1.6198787
H    3.4947053   -3.0696746   -2.5254932
H    4.2218853   -1.5245760   -1.9250900
H    4.5411307   -3.0792387   -1.0750148
C    3.5723806   -2.4975164    1.4852226
H    3.3916815   -2.9922698    2.4641877
H    4.4717571   -2.9946180    1.0721534
C    3.9338116   -1.0195331    1.7142165
H    4.9405542   -0.9468527    2.1810301
H    3.9833236   -0.5504661    0.7145416
C    2.9649305   -0.2819999    2.6518160
H    1.9163462   -0.4782037    2.4100697
H    3.0262552   -0.6934673    3.6830691
C    3.1995640    1.2441682    2.7090884
H    2.2686571    1.7052706    3.1069340
H    3.9903913    1.4158444    3.4699901
C    3.6530861    2.0597284    1.4555853
H    3.7085916    3.0905589    1.8709517
C   -3.9413924   -1.1166416    1.2991557
H   -4.0171926   -1.7520161    0.3918200
H   -4.9314430   -1.1394393    1.8072845
C   -2.8949109   -1.7051982    2.2700268
H   -3.3024688   -2.6712765    2.6428224
H   -2.8063018   -1.0561944    3.1666657
C   -3.6657182    0.3366816    0.9113013
H   -2.6807336    0.4078692    0.4199701
H   -3.6584277    0.9682974    1.8270428
C   -4.7302079    0.8368610   -0.0791191
H   -4.7199073    0.1656540   -0.9614467
H   -5.7430339    0.7607754    0.3731435
O   -3.7565548    4.0573691    1.0928908
O    5.3613490    1.5022098   -0.1273938
O   -0.6251565    0.0099198   -1.2261527
Fe    0.3298207   -1.1506653   -0.0468091
O   -0.9235637   -0.7787709    1.3795988
O   -0.8435253   -2.5599768   -0.5605637
O    1.2581884   -2.3568706    1.1421766
O    1.5152473   -1.5954964   -1.4232140
$end

$rem
BASIS  =  gen
DFT_D  =  D3_BJ
GUI  =  2
JOB_TYPE  =  Optimization
METHOD  =  B3LYP
PURECART  =  11
SCF_CONVERGENCE  =  8
SOLVENT_METHOD  =  PCM
$end

$basis
H     0
S   4   1.00
1.301000D+01           1.968500D-02
1.962000D+00           1.379770D-01
4.446000D-01           4.781480D-01
1.220000D-01           5.012400D-01
S   1   1.00
1.220000D-01           1.000000D+00
P   1   1.00
7.270000D-01           1.0000000
****
C     0
S   9   1.00
6.665000D+03           6.920000D-04
1.000000D+03           5.329000D-03
2.280000D+02           2.707700D-02
6.471000D+01           1.017180D-01
2.106000D+01           2.747400D-01
7.495000D+00           4.485640D-01
2.797000D+00           2.850740D-01
5.215000D-01           1.520400D-02
1.596000D-01          -3.191000D-03
S   9   1.00
6.665000D+03          -1.460000D-04
1.000000D+03          -1.154000D-03
2.280000D+02          -5.725000D-03
6.471000D+01          -2.331200D-02
2.106000D+01          -6.395500D-02
7.495000D+00          -1.499810D-01
2.797000D+00          -1.272620D-01
5.215000D-01           5.445290D-01
1.596000D-01           5.804960D-01
S   1   1.00
1.596000D-01           1.000000D+00
P   4   1.00
9.439000D+00           3.810900D-02
2.002000D+00           2.094800D-01
5.456000D-01           5.085570D-01
1.517000D-01           4.688420D-01
P   1   1.00
1.517000D-01           1.000000D+00
D   1   1.00
5.500000D-01           1.0000000
****
N     0
S   9   1.00
9.046000D+03           7.000000D-04
1.357000D+03           5.389000D-03
3.093000D+02           2.740600D-02
8.773000D+01           1.032070D-01
2.856000D+01           2.787230D-01
1.021000D+01           4.485400D-01
3.838000D+00           2.782380D-01
7.466000D-01           1.544000D-02
2.248000D-01          -2.864000D-03
S   9   1.00
9.046000D+03          -1.530000D-04
1.357000D+03          -1.208000D-03
3.093000D+02          -5.992000D-03
8.773000D+01          -2.454400D-02
2.856000D+01          -6.745900D-02
1.021000D+01          -1.580780D-01
3.838000D+00          -1.218310D-01
7.466000D-01           5.490030D-01
2.248000D-01           5.788150D-01
S   1   1.00
2.248000D-01           1.000000D+00
P   4   1.00
1.355000D+01           3.991900D-02
2.917000D+00           2.171690D-01
7.973000D-01           5.103190D-01
2.185000D-01           4.622140D-01
P   1   1.00
2.185000D-01           1.000000D+00
D   1   1.00
8.170000D-01           1.0000000
****
O     0
S   9   1.00
1.172000D+04           7.100000D-04
1.759000D+03           5.470000D-03
4.008000D+02           2.783700D-02
1.137000D+02           1.048000D-01
3.703000D+01           2.830620D-01
1.327000D+01           4.487190D-01
5.025000D+00           2.709520D-01
1.013000D+00           1.545800D-02
3.023000D-01          -2.585000D-03
S   9   1.00
1.172000D+04          -1.600000D-04
1.759000D+03          -1.263000D-03
4.008000D+02          -6.267000D-03
1.137000D+02          -2.571600D-02
3.703000D+01          -7.092400D-02
1.327000D+01          -1.654110D-01
5.025000D+00          -1.169550D-01
1.013000D+00           5.573680D-01
3.023000D-01           5.727590D-01
S   1   1.00
3.023000D-01           1.000000D+00
P   4   1.00
1.770000D+01           4.301800D-02
3.854000D+00           2.289130D-01
1.046000D+00           5.087280D-01
2.753000D-01           4.605310D-01
P   1   1.00
2.753000D-01           1.000000D+00
D   1   1.00
1.185000D+00           1.0000000
****
Fe     0
S   20   1.00
4.316265D+06           8.048803D-06
6.463424D+05           6.258306D-05
1.470897D+05           3.290239D-04
4.166152D+04           1.387355D-03
1.359077D+04           5.023256D-03
4.905750D+03           1.610140D-02
1.912746D+03           4.590034D-02
7.926043D+02           1.136154D-01
3.448065D+02           2.283869D-01
1.558999D+02           3.221159D-01
7.223091D+01           2.383661D-01
3.272506D+01           7.404667D-02
1.566762D+01           9.214197D-02
7.503483D+00           9.339790D-02
3.312223D+00           1.573965D-02
1.558471D+00          -4.186682D-04
6.839140D-01           5.376318D-05
1.467570D-01          -3.816654D-05
7.058300D-02           4.319603D-05
3.144900D-02          -3.401019D-06
S   20   1.00
4.316265D+06          -4.155954D-06
6.463424D+05          -3.231401D-05
1.470897D+05          -1.699525D-04
4.166152D+04          -7.171369D-04
1.359077D+04          -2.603625D-03
4.905750D+03          -8.399109D-03
1.912746D+03          -2.434109D-02
7.926043D+02          -6.251948D-02
3.448065D+02          -1.365929D-01
1.558999D+02          -2.312707D-01
7.223091D+01          -2.383734D-01
3.272506D+01           3.123837D-02
1.566762D+01           5.086818D-01
7.503483D+00           4.987695D-01
3.312223D+00           9.033552D-02
1.558471D+00          -6.005337D-03
6.839140D-01           2.312454D-04
1.467570D-01          -5.643680D-04
7.058300D-02           4.992260D-04
3.144900D-02          -1.015293D-04
S   20   1.00
4.316265D+06           9.532178D-07
6.463424D+05           7.414605D-06
1.470897D+05           3.898393D-05
4.166152D+04           1.647152D-04
1.359077D+04           5.985980D-04
4.905750D+03           1.942390D-03
1.912746D+03           5.687237D-03
7.926043D+02           1.501329D-02
3.448065D+02           3.452455D-02
1.558999D+02           6.495820D-02
7.223091D+01           7.716194D-02
3.272506D+01          -1.873411D-02
1.566762D+01          -3.009185D-01
7.503483D+00          -4.554661D-01
3.312223D+00           1.286463D-01
1.558471D+00           7.183316D-01
6.839140D-01           4.051743D-01
1.467570D-01           2.168227D-02
7.058300D-02          -8.343566D-03
3.144900D-02           3.658979D-03
S   20   1.00
4.316265D+06          -2.063008D-07
6.463424D+05          -1.604169D-06
1.470897D+05          -8.438437D-06
4.166152D+04          -3.563151D-05
1.359077D+04          -1.295998D-04
4.905750D+03          -4.201534D-04
1.912746D+03          -1.231954D-03
7.926043D+02          -3.248922D-03
3.448065D+02          -7.493717D-03
1.558999D+02          -1.410102D-02
7.223091D+01          -1.691600D-02
3.272506D+01           4.218996D-03
1.566762D+01           6.833810D-02
7.503483D+00           1.098201D-01
3.312223D+00          -4.009005D-02
1.558471D+00          -2.174739D-01
6.839140D-01          -2.465135D-01
1.467570D-01           2.731435D-01
7.058300D-02           5.748321D-01
3.144900D-02           3.012713D-01
S   20   1.00
4.316265D+06          -4.009367D-07
6.463424D+05          -3.189255D-06
1.470897D+05          -1.623079D-05
4.166152D+04          -7.157920D-05
1.359077D+04          -2.463958D-04
4.905750D+03          -8.544907D-04
1.912746D+03          -2.307593D-03
7.926043D+02          -6.728292D-03
3.448065D+02          -1.366165D-02
1.558999D+02          -3.062240D-02
7.223091D+01          -2.631137D-02
3.272506D+01          -9.760183D-03
1.566762D+01           1.801906D-01
7.503483D+00           1.529634D-01
3.312223D+00           5.505413D-02
1.558471D+00          -9.551364D-01
6.839140D-01           2.586813D-01
1.467570D-01           1.834049D+00
7.058300D-02          -9.333240D-01
3.144900D-02          -6.981605D-01
S   1   1.00

   23   -3128.4927871453      4.75e-09  Convergence criterion met
 Total energy in the final basis set =    -3128.4927871453
   17   -3128.5826434840      5.74e-09  Convergence criterion met
 Total energy in the final basis set =    -3128.5826434840
   16   -3128.6160393545      6.53e-09  Convergence criterion met
 Total energy in the final basis set =    -3128.6160393545
   15   -3128.6263119602      8.39e-09  Convergence criterion met
 Total energy in the final basis set =    -3128.6263119602
   16   -3128.6380903999      5.41e-09  Convergence criterion met
 Total energy in the final basis set =    -3128.6380903999
   17   -3128.6386632409      5.52e-09  Convergence criterion met
 Total energy in the final basis set =    -3128.6386632409
   16   -3128.6433853549      9.72e-09  Convergence criterion met
 Total energy in the final basis set =    -3128.6433853549
   15   -3128.6473685225      7.85e-09  Convergence criterion met
   16   -3128.6627853638      8.47e-09  Convergence criterion met
 Total energy in the final basis set =    -3128.6627853638
   16   -3128.6627900701      8.38e-09  Convergence criterion met
 Total energy in the final basis set =    -3128.6627900701
   16   -3128.6627935642      8.74e-09  Convergence criterion met
 Total energy in the final basis set =    -3128.6627935642
   16   -3128.6627959103      9.60e-09  Convergence criterion met
 Total energy in the final basis set =    -3128.6627959103
   17   -3128.6627975762      3.53e-09  Convergence criterion met
 Total energy in the final basis set =    -3128.6627975762
   17   -3128.6627988075      3.64e-09  Convergence criterion met
 Total energy in the final basis set =    -3128.6627988075
   17   -3128.6627996766      3.77e-09  Convergence criterion met
 Total energy in the final basis set =    -3128.6627996766

                    Orbital Energies (a.u.)
 --------------------------------------------------------------

 Alpha MOs
 -- Occupied --
******** -30.1415 -25.9956 -25.9934 -25.9909 -19.1396 -19.1360 -19.1331
-19.1295 -19.1240 -19.1218 -19.0957 -19.0614 -19.0612 -19.0546 -19.0542
-14.4139 -14.4088 -14.3407 -14.3281 -10.2912 -10.2857 -10.2857 -10.2756
-10.2527 -10.2474 -10.2470 -10.2232 -10.2189 -10.2062 -10.1982 -10.1945
-10.1852 -10.1832 -10.1810 -10.1732 -10.1709 -10.1678 -10.1664 -10.1612
-10.1594  -3.6240  -2.4021  -2.3984  -2.3924  -1.0894  -1.0830  -1.0392
 -1.0206  -1.0176  -1.0103  -1.0092  -1.0002  -0.9996  -0.9170  -0.9160
 -0.9077  -0.9001  -0.8615  -0.8530  -0.7937  -0.7866  -0.7744  -0.7548
 -0.7458  -0.7286  -0.7216  -0.7127  -0.6873  -0.6797  -0.6364  -0.6299
 -0.5969  -0.5891  -0.5636  -0.5615  -0.5497  -0.5423  -0.5369  -0.5231
 -0.5173  -0.5138  -0.5071  -0.5037  -0.4989  -0.4924  -0.4825  -0.4773
 -0.4667  -0.4612  -0.4605  -0.4535  -0.4460  -0.4431  -0.4417  -0.4376
 -0.4334  -0.4309  -0.4274  -0.4224  -0.4209  -0.4168  -0.4160  -0.4146
 -0.4126  -0.4099  -0.4045  -0.4021  -0.3994  -0.3963  -0.3935  -0.3864
 -0.3828  -0.3802  -0.3782  -0.3767  -0.3741  -0.3721  -0.3669  -0.3662
 -0.3611  -0.3579  -0.3545  -0.3489  -0.3471  -0.3447  -0.3331  -0.3311
 -0.3263  -0.3219  -0.3195  -0.3145  -0.3111  -0.3059  -0.3015  -0.2938
 -0.2892  -0.2764  -0.2708  -0.2491  -0.2467  -0.2429  -0.2322  -0.2266
 -0.2251  -0.2232  -0.2175  -0.2134  -0.2108  -0.2089  -0.2083  -0.1989

 Beta MOs
 -- Occupied --
******** -30.0487 -25.9173 -25.9160 -25.9146 -19.1338 -19.1327 -19.1273
-19.1262 -19.1206 -19.1183 -19.0957 -19.0614 -19.0612 -19.0546 -19.0542
-14.4135 -14.4085 -14.3404 -14.3281 -10.2913 -10.2857 -10.2857 -10.2756
-10.2528 -10.2474 -10.2470 -10.2232 -10.2189 -10.2062 -10.1982 -10.1944
-10.1851 -10.1831 -10.1809 -10.1732 -10.1708 -10.1678 -10.1664 -10.1609
-10.1594  -3.4079  -2.1719  -2.1700  -2.1681  -1.0836  -1.0771  -1.0338
 -1.0201  -1.0103  -1.0038  -1.0028  -1.0002  -0.9991  -0.9170  -0.9151
 -0.9068  -0.9001  -0.8558  -0.8473  -0.7932  -0.7860  -0.7733  -0.7541
 -0.7451  -0.7273  -0.7203  -0.7116  -0.6867  -0.6792  -0.6356  -0.6291
 -0.5948  -0.5879  -0.5624  -0.5571  -0.5466  -0.5379  -0.5293  -0.5176
 -0.5157  -0.5024  -0.5022  -0.4975  -0.4944  -0.4880  -0.4769  -0.4734
 -0.4617  -0.4596  -0.4556  -0.4484  -0.4426  -0.4388  -0.4367  -0.4314
 -0.4291  -0.4273  -0.4188  -0.4172  -0.4145  -0.4109  -0.4038  -0.4021
 -0.4012  -0.3994  -0.3946  -0.3932  -0.3869  -0.3805  -0.3784  -0.3777
 -0.3719  -0.3674  -0.3669  -0.3646  -0.3612  -0.3552  -0.3494  -0.3477
 -0.3456  -0.3361  -0.3287  -0.3262  -0.3208  -0.3199  -0.3159  -0.3115
 -0.3043  -0.3028  -0.3001  -0.2922  -0.2893  -0.2838  -0.2734  -0.2596
 -0.2432  -0.2429  -0.2270  -0.2256  -0.2244  -0.2176  -0.2149  -0.2092
 -0.2083  -0.2065  -0.1980

          Ground-State Mulliken Net Atomic Charges

     Atom                 Charge (a.u.)    Spin (a.u.)
  --------------------------------------------------------
      1 N                    -0.023022       0.017080
      2 C                     0.003216      -0.000005
      3 H                    -0.016130      -0.000003
      4 N                    -0.091546       0.000091
      5 H                     0.080881      -0.000023
      6 C                     0.094259      -0.000001
      7 O                    -0.447481       0.000006
      8 C                     0.098306      -0.000459
      9 O                    -0.359757       0.000298
     10 C                     0.140047      -0.000682
     11 C                     0.022594       0.003851
     12 H                     0.072125       0.000109
     13 H                     0.075787       0.000136
     14 H                     0.051664       0.000339
     15 C                     0.118628       0.006849
     16 H                     0.041169       0.001466
     17 H                     0.014759      -0.000411
     18 C                     0.077508      -0.006124
     19 C                    -0.088769       0.021676
     20 H                    -0.019054      -0.000241
     21 C                     0.252460       0.002046
     22 O                    -0.390079       0.090287
     23 N                    -0.100761       0.011960
     24 H                     0.110950       0.001355
     25 C                     0.136086       0.000446
     26 O                    -0.455616       0.000892
     27 N                    -0.028229       0.014337
     28 C                     0.151175       0.008677
     29 C                     0.017056       0.003192
     30 H                     0.045896       0.000355
     31 H                     0.057882       0.000555
     32 H                     0.046278       0.000801
     33 C                     0.132797       0.001337
     34 H                     0.027431       0.000374
     35 H                     0.038888       0.000746
     36 C                    -0.027575       0.000981
     37 H                     0.003187       0.000742
     38 H                     0.014867      -0.000012
     39 C                    -0.020299       0.000684
     40 H                     0.067834       0.001506
     41 H                    -0.011107       0.000124
     42 C                     0.046226       0.000482
     43 H                    -0.008711       0.000059
     44 H                    -0.007410      -0.000006
     45 C                    -0.001847      -0.000266
     46 H                     0.008778      -0.000017
     47 C                    -0.014855       0.000508
     48 H                     0.017195       0.000058
     49 H                     0.014873       0.000594
     50 C                     0.136689       0.001090
     51 H                     0.041026       0.001367
     52 H                     0.036268       0.000885
     53 C                    -0.057692       0.000073
     54 H                     0.063372       0.001067
     55 H                    -0.000774      -0.000004
     56 C                     0.053312       0.000221
     57 H                    -0.010570       0.000012
     58 H                    -0.011664       0.000078
     59 O                    -0.443618       0.000054
     60 O                    -0.409690       0.000815
     61 O                    -0.404074       0.095359
     62 Fe                    0.650273       4.170657
     63 O                    -0.435560       0.178481
     64 O                    -0.367751       0.091761
     65 O                    -0.428759       0.179986
     66 O                    -0.379347       0.091351
  --------------------------------------------------------
  Sum of atomic charges =    -2.000000

                    Cartesian Multipole Moments
 -----------------------------------------------------------------
    Charge (ESU x 10^10)
                -9.6064
    Dipole Moment (Debye)
         X       0.2871      Y     -16.8667      Z      -0.3314
       Tot      16.8724
    Quadrupole Moments (Debye-Ang)
        XX    -364.6690     XY      47.1365     YY    -269.4300
        XZ      11.0533     YZ     -30.3079     ZZ    -259.7916

 Final energy is -3128.662799676626
	**  OPTIMIZATION CONVERGED  **

             Standard Nuclear Orientation (Angstroms)
    I     Atom           X                Y                Z
 ----------------------------------------------------------------
    1      N      -2.1260227751    -2.2722361586     1.1477088888
    2      C      -4.0967826258     2.4636873043    -0.1834367135
    3      H      -4.8341794648     3.0392527862    -0.7682107763
    4      N      -2.8972312467     2.2491310107    -0.9745164639
    5      H      -2.0565258889     2.5483146562    -0.4753835898
    6      C      -3.6919935177     3.3085440910     1.0634480935
    7      O      -4.6385612404     3.7008471004     1.7877153690
    8      C      -2.8210677206     1.6387210985    -2.1685514755
    9      O      -3.8036236662     1.2430891072    -2.8100099972
   10      C      -1.9374313390    -3.1047481140     0.1279323177
   11      C      -2.9741385564    -4.1346676091    -0.2213915299
   12      H      -3.2999387574    -4.7001565427     0.6635503097
   13      H      -3.8623072078    -3.6581727734    -0.6654198014
   14      H      -2.5396948006    -4.8251802185    -0.9543278138
   15      C      -1.3907356659     1.4843845280    -2.7109808686
   16      H      -1.0552256439     2.4610560185    -3.0920100925
   17      H      -1.4390899826     0.7728593695    -3.5453976745
   18      C      -0.4468037297     0.9645429148    -1.6437094580
   19      C       0.4084867358     1.8527023110    -1.0128988119
   20      H       0.4438852149     2.8818585343    -1.3702587580
   21      C       1.2930259347     1.4719363622     0.0522416059
   22      O       1.2838083564     0.3054737042     0.5702016640
   23      N       2.1224925961     2.4167857909     0.5648121312
   24      H       2.0792469282     3.2866818370     0.0428955025
   25      C       4.4563785283     1.5603898772     0.0847578891
   26      O       5.6623052878     1.5633005271     0.4455620002
   27      N       2.8365537175    -2.3071599661     0.8592759900
   28      C       2.9728518068    -2.1482287300    -0.4552444247
   29      C       4.3183246075    -2.0954856898    -1.1082745395
   30      H       4.2557056108    -2.6177151357    -2.0736180255
   31      H       4.5465359260    -1.0308104685    -1.2944106735
   32      H       5.1167751935    -2.5385438227    -0.5013997483
   33      C       3.8953979178    -2.2921350039     1.8750032175
   34      H       3.4512802703    -2.7766078376     2.7555588560
   35      H       4.7235974822    -2.9249027025     1.5259693401
   36      C       4.3936995407    -0.8781618937     2.1918384973
   37      H       5.2190849809    -0.9713599460     2.9206427228
   38      H       4.8517598319    -0.4552757229     1.2886699668
   39      C       3.3033480293     0.0590172053     2.7414198753
   40      H       2.3423862974    -0.1981154651     2.2887350387
   41      H       3.2040244005    -0.1203801176     3.8273849770
   42      C       3.5554349417     1.5623502759     2.5389226005
   43      H       2.8532031349     2.1218760358     3.1805457065
   44      H       4.5690595631     1.8085740862     2.8963998135
   45      C       3.4689859524     2.1920522138     1.1250682537
   46      H       3.8470652027     3.2162809083     1.2688817050
   47      C      -4.3521273399    -1.1581548567     1.2926500072
   48      H      -4.7141456663    -1.6041028713     0.3495547192
   49      H      -5.2287311991    -1.0913533026     1.9613299633
   50      C      -3.3457743225    -2.1145816283     1.9393057992
   51      H      -3.7916301505    -3.1068915485     2.0890085961
   52      H      -3.0141030460    -1.7408408890     2.9183656124
   53      C      -3.7817968237     0.2304209190     1.0101555998
   54      H      -2.8652477699     0.1200227824     0.4115053904
   55      H      -3.4720709528     0.7021955593     1.9595283889
   56      C      -4.7526161038     1.1422256759     0.2616433696
   57      H      -5.1350145141     0.6183193523    -0.6291986988
   58      H      -5.6152901253     1.4029940167     0.8953623158
   59      O      -2.4539075763     3.4933037108     1.2436652683
   60      O       3.9796063206     1.1263839992    -0.9965058718
   61      O      -0.5640078801    -0.3003727522    -1.3901905016
   62      Fe      0.3245054946    -1.4013242012     0.0640596502
   63      O      -1.1445810254    -1.3551077587     1.3906813613
   64      O      -0.8557145170    -3.0106973475    -0.5422092002
   65      O       1.5598810306    -2.3048871262     1.3428434798
   66      O       1.9144397064    -2.0006870695    -1.1602503447
 ----------------------------------------------------------------

 Total job time:  90315.16s(wall), 1469249.30s(cpu)
        *  Thank you very much for using Q-Chem.  Have a nice day.  *
