 Q-Chem 6.0, Q-Chem, Inc., Pleasanton, CA (2022)
 Q-Chem 6.0.2 for Intel X86 EM64T Linux

User input:
--------------------------------------------------------------
$molecule
-2 6
C   -2.1355847    1.2126878   -2.0299804
C   -4.0247187   -0.9495601    1.6937807
H   -3.5241038   -0.8472563    2.6805621
N   -3.1299068   -1.6772244    0.7905523
H   -3.4178074   -2.6044786    0.4449898
C   -5.3135735   -1.7263623    1.9279376
O   -6.2282608   -1.2476690    2.7912860
C   -1.8407065   -1.2253178    0.3754344
O   -1.4323093    0.0235788    0.6252011
N   -2.3653800    2.1409140   -1.0534408
C   -3.6758155    2.8022295   -0.8853022
H   -3.8403624    3.5633421   -1.6772135
H   -3.6595654    3.3419124    0.0852660
C   -1.0339570   -2.0830330   -0.2373930
H   -1.3974366   -3.0951820   -0.3902985
C    0.3738287   -1.8280212   -0.5813143
C    1.1488230   -3.1137470   -0.7904378
H    0.6872403   -3.6878429   -1.6246926
H    1.0452225   -3.7164832    0.1394488
C    2.6041369   -2.9358232   -1.0414355
O    3.0993049   -3.4256118   -2.0457566
N    3.3539623   -2.2479584   -0.1406814
H    2.8636886   -1.9018616    0.6972453
C    5.3382609   -1.2380924    0.8861024
O    6.5183766   -0.9314278    0.9082007
N    2.2231382    2.0969649   -0.5298318
C    2.0072184    1.8461060    0.8036568
C    3.0480469    2.1637584    1.8749841
H    2.6114502    2.7885053    2.6807567
H    3.4446513    1.2344657    2.3269426
H    3.9219559    2.7338371    1.4942291
C    3.5204507    2.5115056   -1.0806317
H    3.4031495    2.7590977   -2.1581529
H    3.8932153    3.4367490   -0.5889465
C    4.5674602    1.3716954   -0.9840671
H    5.5352955    1.7063155   -1.4241752
H    4.7533054    1.1267803    0.0732654
C    4.0904893    0.1382043   -1.7661733
H    3.0642303   -0.1322363   -1.4707182
H    4.0480788    0.4309547   -2.8372204
C    4.9765233   -1.1193107   -1.6362648
H    4.6852846   -1.7759985   -2.4787690
H    6.0456605   -0.8805197   -1.8104735
C    4.7692348   -1.9443894   -0.3282202
H    5.3299134   -2.9009840   -0.4240934
C   -4.9492960    1.8585535   -0.8869661
H   -5.8017321    2.3995169   -0.4219818
H   -5.2901329    1.6582555   -1.9212948
C   -3.0197306    1.0124220   -3.2346997
H   -3.7712165    1.8127094   -3.3536241
H   -2.3918430    1.0899764   -4.1459120
C   -4.8129538    0.4595581   -0.2677050
H   -4.0938657   -0.1100372   -0.8845040
H   -5.7841049   -0.0826116   -0.3379375
C   -4.3395240    0.4744921    1.1794434
H   -3.4233654    1.0847290    1.2421020
H   -5.0904855    0.9731821    1.8297715
O   -5.5373160   -2.7859331    1.3610427
O    4.5751570   -0.9659362    1.9638844
O    0.8839809   -0.6981658   -0.6059444
Fe   -0.1258656    0.9215868   -0.4036435
O   -1.1548610    0.5021150   -1.9057668
O   -1.3411173    2.4108177   -0.1813872
O    1.1924902    1.9170910   -1.3884754
O    0.9258333    1.3402002    1.1190119
H   -3.5040101    0.0156825   -3.2136136
$end

$rem
BASIS  =  gen
DFT_D  =  D3_BJ
GUI  =  2
JOB_TYPE  =  Optimization
METHOD  =  B3LYP
SCF_CONVERGENCE  =  8
SOLVENT_METHOD  =  PCM
GEOM_OPT_MAX_CYCLES = 200
$end

$pcm
THEORY  CPCM
$end

$solvent
DIELECTRIC  78.39
$end

$van_der_waals
26   2.44
$end

!----------------------------------------------------------------------
! Basis Set Exchange
! Basis set: cc-pVDZ
!----------------------------------------------------------------------

$rem
BASIS GEN
PURECART 11
$end

$basis
H     0
S   4   1.00
1.301000D+01           1.968500D-02
1.962000D+00           1.379770D-01
4.446000D-01           4.781480D-01
1.220000D-01           5.012400D-01
S   1   1.00
1.220000D-01           1.000000D+00
P   1   1.00
7.270000D-01           1.0000000
****
C     0
S   9   1.00
6.665000D+03           6.920000D-04
1.000000D+03           5.329000D-03
2.280000D+02           2.707700D-02
6.471000D+01           1.017180D-01
2.106000D+01           2.747400D-01
7.495000D+00           4.485640D-01
2.797000D+00           2.850740D-01
5.215000D-01           1.520400D-02
1.596000D-01          -3.191000D-03
S   9   1.00
6.665000D+03          -1.460000D-04
1.000000D+03          -1.154000D-03
2.280000D+02          -5.725000D-03
6.471000D+01          -2.331200D-02
2.106000D+01          -6.395500D-02
7.495000D+00          -1.499810D-01
2.797000D+00          -1.272620D-01
5.215000D-01           5.445290D-01
1.596000D-01           5.804960D-01
S   1   1.00
1.596000D-01           1.000000D+00
P   4   1.00
9.439000D+00           3.810900D-02
2.002000D+00           2.094800D-01
5.456000D-01           5.085570D-01
1.517000D-01           4.688420D-01
P   1   1.00
1.517000D-01           1.000000D+00
D   1   1.00
5.500000D-01           1.0000000
****
N     0
S   9   1.00
9.046000D+03           7.000000D-04
1.357000D+03           5.389000D-03
3.093000D+02           2.740600D-02
8.773000D+01           1.032070D-01
2.856000D+01           2.787230D-01
1.021000D+01           4.485400D-01
3.838000D+00           2.782380D-01
7.466000D-01           1.544000D-02
2.248000D-01          -2.864000D-03
S   9   1.00
9.046000D+03          -1.530000D-04
1.357000D+03          -1.208000D-03
3.093000D+02          -5.992000D-03
8.773000D+01          -2.454400D-02
2.856000D+01          -6.745900D-02
1.021000D+01          -1.580780D-01
3.838000D+00          -1.218310D-01
7.466000D-01           5.490030D-01
2.248000D-01           5.788150D-01
S   1   1.00
2.248000D-01           1.000000D+00
P   4   1.00
1.355000D+01           3.991900D-02
2.917000D+00           2.171690D-01
7.973000D-01           5.103190D-01
2.185000D-01           4.622140D-01
P   1   1.00
2.185000D-01           1.000000D+00
D   1   1.00
8.170000D-01           1.0000000
****
O     0
S   9   1.00
1.172000D+04           7.100000D-04
1.759000D+03           5.470000D-03
4.008000D+02           2.783700D-02
1.137000D+02           1.048000D-01
3.703000D+01           2.830620D-01
1.327000D+01           4.487190D-01
5.025000D+00           2.709520D-01
1.013000D+00           1.545800D-02
3.023000D-01          -2.585000D-03
S   9   1.00
1.172000D+04          -1.600000D-04
1.759000D+03          -1.263000D-03
4.008000D+02          -6.267000D-03
1.137000D+02          -2.571600D-02
3.703000D+01          -7.092400D-02
1.327000D+01          -1.654110D-01
5.025000D+00          -1.169550D-01
1.013000D+00           5.573680D-01
3.023000D-01           5.727590D-01
S   1   1.00
3.023000D-01           1.000000D+00
P   4   1.00
1.770000D+01           4.301800D-02
3.854000D+00           2.289130D-01
1.046000D+00           5.087280D-01
2.753000D-01           4.605310D-01
P   1   1.00
2.753000D-01           1.000000D+00
D   1   1.00
1.185000D+00           1.0000000
****
Fe     0
S   20   1.00
4.316265D+06           8.048803D-06
6.463424D+05           6.258306D-05
1.470897D+05           3.290239D-04
4.166152D+04           1.387355D-03
1.359077D+04           5.023256D-03
4.905750D+03           1.610140D-02
1.912746D+03           4.590034D-02
7.926043D+02           1.136154D-01
3.448065D+02           2.283869D-01
1.558999D+02           3.221159D-01
7.223091D+01           2.383661D-01
3.272506D+01           7.404667D-02
1.566762D+01           9.214197D-02
7.503483D+00           9.339790D-02
3.312223D+00           1.573965D-02
1.558471D+00          -4.186682D-04
6.839140D-01           5.376318D-05
1.467570D-01          -3.816654D-05
7.058300D-02           4.319603D-05
3.144900D-02          -3.401019D-06
S   20   1.00
4.316265D+06          -4.155954D-06
6.463424D+05          -3.231401D-05
1.470897D+05          -1.699525D-04
4.166152D+04          -7.171369D-04
1.359077D+04          -2.603625D-03
4.905750D+03          -8.399109D-03
1.912746D+03          -2.434109D-02
7.926043D+02          -6.251948D-02
3.448065D+02          -1.365929D-01
1.558999D+02          -2.312707D-01
7.223091D+01          -2.383734D-01
3.272506D+01           3.123837D-02
1.566762D+01           5.086818D-01
7.503483D+00           4.987695D-01
3.312223D+00           9.033552D-02
1.558471D+00          -6.005337D-03
6.839140D-01           2.312454D-04
1.467570D-01          -5.643680D-04
7.058300D-02           4.992260D-04
3.144900D-02          -1.015293D-04
S   20   1.00
4.316265D+06           9.532178D-07
6.463424D+05           7.414605D-06
1.470897D+05           3.898393D-05
4.166152D+04           1.647152D-04
1.359077D+04           5.985980D-04
4.905750D+03           1.942390D-03
1.912746D+03           5.687237D-03
7.926043D+02           1.501329D-02
3.448065D+02           3.452455D-02
1.558999D+02           6.495820D-02
7.223091D+01           7.716194D-02
3.272506D+01          -1.873411D-02
1.566762D+01          -3.009185D-01
7.503483D+00          -4.554661D-01
3.312223D+00           1.286463D-01
1.558471D+00           7.183316D-01
6.839140D-01           4.051743D-01
1.467570D-01           2.168227D-02
7.058300D-02          -8.343566D-03
3.144900D-02           3.658979D-03
S   20   1.00
4.316265D+06          -2.063008D-07
6.463424D+05          -1.604169D-06
1.470897D+05          -8.438437D-06
4.166152D+04          -3.563151D-05
1.359077D+04          -1.295998D-04
4.905750D+03          -4.201534D-04
1.912746D+03          -1.231954D-03
7.926043D+02          -3.248922D-03
3.448065D+02          -7.493717D-03
1.558999D+02          -1.410102D-02
7.223091D+01          -1.691600D-02
3.272506D+01           4.218996D-03
1.566762D+01           6.833810D-02
7.503483D+00           1.098201D-01
3.312223D+00          -4.009005D-02
1.558471D+00          -2.174739D-01
6.839140D-01          -2.465135D-01
1.467570D-01           2.731435D-01
7.058300D-02           5.748321D-01
3.144900D-02           3.012713D-01

   20   -3128.5337298910      6.08e-09  Convergence criterion met
 Total energy in the final basis set =    -3128.5337298910
   16   -3128.6163300267      1.00e-08  Convergence criterion met
 Total energy in the final basis set =    -3128.6163300267
   15   -3128.6433596115      9.57e-09  Convergence criterion met
 Total energy in the final basis set =    -3128.6433596115
   15   -3128.6519500351      9.56e-09  Convergence criterion met
 Total energy in the final basis set =    -3128.6519500351
   16   -3128.6609733082      6.60e-09  Convergence criterion met
 Total energy in the final basis set =    -3128.6609733082
   16   -3128.6624857001      8.35e-09  Convergence criterion met
 Total energy in the final basis set =    -3128.6624857001
   16   -3128.6635579964      8.81e-09  Convergence criterion met
 Total energy in the final basis set =    -3128.6635579964
   16   -3128.6648861073      7.47e-09  Convergence criterion met
   16   -3128.6703679493      7.49e-09  Convergence criterion met
 Total energy in the final basis set =    -3128.6703679493
   16   -3128.6703706265      7.71e-09  Convergence criterion met
 Total energy in the final basis set =    -3128.6703706265
   16   -3128.6703725842      7.98e-09  Convergence criterion met
 Total energy in the final basis set =    -3128.6703725842
   16   -3128.6703741387      8.09e-09  Convergence criterion met
 Total energy in the final basis set =    -3128.6703741387
   16   -3128.6703755269      8.04e-09  Convergence criterion met
 Total energy in the final basis set =    -3128.6703755269
   16   -3128.6703767263      8.05e-09  Convergence criterion met
 Total energy in the final basis set =    -3128.6703767263
   16   -3128.6703776553      8.39e-09  Convergence criterion met
 Total energy in the final basis set =    -3128.6703776553

                    Orbital Energies (a.u.)
 --------------------------------------------------------------

 Alpha MOs
 -- Occupied --
******** -30.1417 -25.9961 -25.9929 -25.9916 -19.1346 -19.1346 -19.1335
-19.1326 -19.1193 -19.1186 -19.0921 -19.0665 -19.0631 -19.0579 -19.0561
-14.4134 -14.4120 -14.3368 -14.3279 -10.2885 -10.2861 -10.2828 -10.2745
-10.2500 -10.2496 -10.2488 -10.2233 -10.2211 -10.2022 -10.2000 -10.1941
-10.1873 -10.1838 -10.1837 -10.1760 -10.1733 -10.1692 -10.1667 -10.1644
-10.1615  -3.6238  -2.4026  -2.3965  -2.3932  -1.0871  -1.0851  -1.0357
 -1.0195  -1.0138  -1.0128  -1.0074  -1.0033  -1.0026  -0.9206  -0.9187
 -0.9043  -0.9001  -0.8584  -0.8560  -0.7920  -0.7886  -0.7722  -0.7548
 -0.7451  -0.7311  -0.7221  -0.7132  -0.6910  -0.6801  -0.6423  -0.6327
 -0.5972  -0.5883  -0.5689  -0.5599  -0.5489  -0.5378  -0.5355  -0.5274
 -0.5149  -0.5126  -0.5062  -0.5010  -0.4954  -0.4873  -0.4845  -0.4768
 -0.4761  -0.4654  -0.4611  -0.4550  -0.4492  -0.4463  -0.4410  -0.4388
 -0.4333  -0.4302  -0.4283  -0.4280  -0.4224  -0.4204  -0.4162  -0.4155
 -0.4111  -0.4052  -0.4026  -0.4000  -0.3983  -0.3952  -0.3921  -0.3878
 -0.3855  -0.3831  -0.3800  -0.3790  -0.3743  -0.3725  -0.3674  -0.3663
 -0.3622  -0.3585  -0.3569  -0.3520  -0.3498  -0.3371  -0.3354  -0.3296
 -0.3240  -0.3221  -0.3171  -0.3148  -0.3140  -0.3069  -0.3046  -0.2986
 -0.2894  -0.2754  -0.2587  -0.2496  -0.2451  -0.2443  -0.2318  -0.2287
 -0.2266  -0.2215  -0.2207  -0.2124  -0.2114  -0.2105  -0.2102  -0.2067

 Beta MOs
 -- Occupied --
******** -30.0490 -25.9176 -25.9160 -25.9152 -19.1312 -19.1298 -19.1291
-19.1275 -19.1155 -19.1153 -19.0921 -19.0665 -19.0630 -19.0579 -19.0561
-14.4130 -14.4115 -14.3364 -14.3278 -10.2886 -10.2863 -10.2828 -10.2745
-10.2501 -10.2496 -10.2490 -10.2233 -10.2210 -10.2022 -10.2000 -10.1940
-10.1871 -10.1837 -10.1837 -10.1760 -10.1733 -10.1692 -10.1667 -10.1643
-10.1610  -3.4077  -2.1715  -2.1695  -2.1684  -1.0815  -1.0794  -1.0307
 -1.0188  -1.0067  -1.0051  -1.0036  -1.0032  -0.9998  -0.9200  -0.9187
 -0.9030  -0.9000  -0.8533  -0.8506  -0.7914  -0.7880  -0.7708  -0.7542
 -0.7443  -0.7298  -0.7207  -0.7122  -0.6904  -0.6796  -0.6414  -0.6320
 -0.5954  -0.5873  -0.5673  -0.5561  -0.5472  -0.5329  -0.5272  -0.5195
 -0.5141  -0.5030  -0.5002  -0.4943  -0.4917  -0.4845  -0.4801  -0.4726
 -0.4678  -0.4641  -0.4559  -0.4529  -0.4455  -0.4444  -0.4370  -0.4304
 -0.4278  -0.4250  -0.4212  -0.4204  -0.4161  -0.4129  -0.4020  -0.4005
 -0.3988  -0.3974  -0.3941  -0.3887  -0.3869  -0.3855  -0.3844  -0.3792
 -0.3746  -0.3691  -0.3673  -0.3629  -0.3623  -0.3585  -0.3541  -0.3506
 -0.3385  -0.3338  -0.3288  -0.3250  -0.3225  -0.3162  -0.3148  -0.3135
 -0.3090  -0.3051  -0.2977  -0.2971  -0.2888  -0.2867  -0.2610  -0.2590
 -0.2451  -0.2393  -0.2293  -0.2275  -0.2220  -0.2211  -0.2173  -0.2123
 -0.2111  -0.2078  -0.1997

          Ground-State Mulliken Net Atomic Charges

     Atom                 Charge (a.u.)    Spin (a.u.)
  --------------------------------------------------------
      1 C                     0.126265       0.000452
      2 C                    -0.009040      -0.000756
      3 H                     0.002496       0.000791
      4 N                    -0.085437       0.012068
      5 H                     0.081974       0.000756
      6 C                     0.095776       0.000006
      7 O                    -0.441870       0.000055
      8 C                     0.246043       0.002903
      9 O                    -0.389488       0.083739
     10 N                    -0.023768       0.016010
     11 C                     0.134964       0.001368
     12 H                     0.047813       0.000614
     13 H                     0.043207       0.000267
     14 C                    -0.095828       0.032837
     15 H                    -0.024258      -0.000852
     16 C                     0.072479      -0.010825
     17 C                     0.099754       0.008250
     18 H                     0.051630      -0.000701
     19 H                     0.040793       0.001540
     20 C                     0.106470      -0.000821
     21 O                    -0.376585      -0.000176
     22 N                    -0.093561       0.000637
     23 H                     0.110335      -0.000176
     24 C                     0.130650      -0.000019
     25 O                    -0.450864       0.000010
     26 N                    -0.024684       0.020388
     27 C                     0.150699      -0.002415
     28 C                     0.020039       0.004327
     29 H                     0.047354       0.000014
     30 H                     0.058605      -0.000413
     31 H                     0.048301       0.001077
     32 C                     0.134683       0.000992
     33 H                     0.031442       0.000493
     34 H                     0.043268       0.001139
     35 C                    -0.023672       0.000970
     36 H                     0.010695       0.000704
     37 H                     0.017082       0.000081
     38 C                    -0.040794       0.000012
     39 H                     0.051393       0.000735
     40 H                    -0.005497      -0.000020
     41 C                     0.048861       0.000162
     42 H                    -0.010763      -0.000003
     43 H                    -0.012976       0.000025
     44 C                     0.010956       0.000020
     45 H                    -0.013090       0.000063
     46 C                    -0.022732       0.001370
     47 H                     0.018827       0.000281
     48 H                     0.010955       0.000121
     49 C                     0.031915       0.003931
     50 H                     0.061176       0.000922
     51 H                     0.058374       0.000103
     52 C                    -0.018382      -0.000102
     53 H                     0.025522       0.000122
     54 H                    -0.000443       0.000033
     55 C                     0.037740       0.000756
     56 H                     0.026177       0.000820
     57 H                    -0.017046       0.000244
     58 O                    -0.443751       0.000524
     59 O                    -0.420542      -0.000008
     60 O                    -0.417076       0.111568
     61 Fe                    0.664252       4.174263
     62 O                    -0.370265       0.095111
     63 O                    -0.429500       0.159084
     64 O                    -0.431472       0.170777
     65 O                    -0.379546       0.103762
     66 H                     0.073965      -0.000009
  --------------------------------------------------------
  Sum of atomic charges =    -2.000000

                    Cartesian Multipole Moments
 -----------------------------------------------------------------
    Charge (ESU x 10^10)
                -9.6064
    Dipole Moment (Debye)
         X      -1.9932      Y      14.7882      Z     -13.8396
       Tot      20.3519
    Quadrupole Moments (Debye-Ang)
        XX    -415.9858     XY      -5.1805     YY    -261.6639
        XZ      50.7752     YZ       6.6445     ZZ    -271.1333

 Final energy is -3128.670377655347
	**  OPTIMIZATION CONVERGED  **

             Standard Nuclear Orientation (Angstroms)
    I     Atom           X                Y                Z
 ----------------------------------------------------------------
    1      C      -2.2496238450     1.3623693989    -2.3699220318
    2      C      -3.7181726756    -0.8202695971     1.9479103578
    3      H      -3.2435504357    -0.5778733350     2.9171162439
    4      N      -2.8268565381    -1.6730349201     1.1719180636
    5      H      -3.2176519873    -2.6129589556     1.0661819675
    6      C      -4.9909835126    -1.6714986492     2.2701247852
    7      O      -5.8945272753    -1.0831460011     2.9108756999
    8      C      -1.6570871048    -1.3281780477     0.6199004016
    9      O      -1.2338185278    -0.1295772065     0.7849513791
   10      N      -2.5436251817     2.1558163265    -1.3478348852
   11      C      -3.8615942788     2.7051329078    -0.9978288692
   12      H      -4.1483903187     3.4680527644    -1.7387247629
   13      H      -3.6822883464     3.2189117499    -0.0471109081
   14      C      -0.9115929771    -2.3231898610    -0.1142796346
   15      H      -1.2583067593    -3.3563363208    -0.0843928100
   16      C       0.2300619600    -2.0140422445    -0.8239271201
   17      C       1.0137174232    -3.1076043821    -1.5214367157
   18      H       0.8695113412    -2.9994886818    -2.6098432109
   19      H       0.6375339579    -4.1048916688    -1.2471111573
   20      C       2.5369155681    -3.1003154591    -1.3256200337
   21      O       3.2492912189    -3.8122362523    -2.0488438715
   22      N       3.0198529503    -2.3172453771    -0.3465404315
   23      H       2.3996465112    -1.6944458369     0.1663513035
   24      C       4.5437667304    -1.1618433218     1.1671706248
   25      O       5.7111086998    -0.9033592654     1.5473812558
   26      N       2.4162539911     2.2088686019    -0.4576683857
   27      C       2.0911256439     2.0747244902     0.8219591302
   28      C       3.0619943986     2.3652754058     1.9221721648
   29      H       2.5200056168     2.8509660065     2.7460650262
   30      H       3.4506100545     1.3927502505     2.2703941248
   31      H       3.8972230068     3.0002913958     1.6048113359
   32      C       3.7433522317     2.5146596029    -1.0045937676
   33      H       3.5587109296     2.8089109773    -2.0464240399
   34      H       4.1493518022     3.3887508937    -0.4758466098
   35      C       4.7092133531     1.3302983175    -0.9190121693
   36      H       5.6809497815     1.6657261172    -1.3237528012
   37      H       4.8918612639     1.0874949624     0.1379213411
   38      C       4.2255858543     0.0896711350    -1.6798564523
   39      H       3.1570611672    -0.0757223878    -1.4719488891
   40      H       4.2931223522     0.2958807904    -2.7623045474
   41      C       4.9979668548    -1.1989503370    -1.3506947616
   42      H       4.9798566207    -1.8729499814    -2.2200257354
   43      H       6.0545740885    -0.9777643816    -1.1281431352
   44      C       4.4217040631    -1.9842377116    -0.1471326074
   45      H       5.0094831093    -2.9091417387    -0.0299743272
   46      C      -4.9822824223     1.6579308236    -0.8592816050
   47      H      -5.8008142210     2.1557746129    -0.3102968661
   48      H      -5.3873559297     1.4207916361    -1.8551002444
   49      C      -3.2026009107     1.1652192687    -3.5094766779
   50      H      -3.9366936982     1.9750655742    -3.5964039003
   51      H      -2.6133449450     1.1047684040    -4.4353607490
   52      C      -4.6021587445     0.3473645251    -0.1597706008
   53      H      -3.8424841240    -0.1806593215    -0.7600241995
   54      H      -5.4910641241    -0.3068178877    -0.1589391257
   55      C      -4.0852902486     0.5126820247     1.2683943554
   56      H      -3.2079119339     1.1709211887     1.2687711028
   57      H      -4.8637197940     0.9707713625     1.8988354999
   58      O      -4.9885560288    -2.8682928282     1.8627871898
   59      O       3.4602184572    -0.7923901167     1.7089010039
   60      O       0.7191914389    -0.8182812374    -0.9842748791
   61      Fe     -0.1126912277     0.9508808003    -0.5431319384
   62      O      -1.1172154994     0.7663304100    -2.3676400682
   63      O      -1.5632554587     2.3341676538    -0.4161433282
   64      O       1.4554931507     1.8818241207    -1.3695621846
   65      O       0.9147993812     1.6494134238     1.0997761187
   66      H      -3.7374560981     0.2097025900    -3.3885121375
 ----------------------------------------------------------------

 Total job time:  122076.92s(wall), 2029940.56s(cpu)
        *  Thank you very much for using Q-Chem.  Have a nice day.  *
