 Q-Chem 6.0, Q-Chem, Inc., Pleasanton, CA (2022)
 Q-Chem 6.0.2 for Intel X86 EM64T Linux

User input:
--------------------------------------------------------------
$molecule
-2 6
C   -2.2496238    1.3623694   -2.3699220
C   -3.7181727   -0.8202696    1.9479104
H   -3.2435504   -0.5778733    2.9171162
N   -2.8268565   -1.6730349    1.1719181
H   -3.2176520   -2.6129590    1.0661820
C   -4.9909835   -1.6714986    2.2701248
O   -5.8945273   -1.0831460    2.9108757
C   -1.6570871   -1.3281780    0.6199004
O   -1.2338185   -0.1295772    0.7849514
N   -2.5436252    2.1558163   -1.3478349
C   -3.8615943    2.7051329   -0.9978289
H   -4.1483903    3.4680528   -1.7387248
H   -3.6822883    3.2189117   -0.0471109
C   -0.9115930   -2.3231899   -0.1142796
H   -1.2583068   -3.3563363   -0.0843928
C    0.2300620   -2.0140422   -0.8239271
C    1.0137174   -3.1076044   -1.5214367
H    0.8695113   -2.9994887   -2.6098432
H    0.6375340   -4.1048917   -1.2471112
C    2.5369156   -3.1003155   -1.3256200
O    3.2492912   -3.8122363   -2.0488439
N    3.0198530   -2.3172454   -0.3465404
H    2.3996465   -1.6944458    0.1663513
C    4.5437667   -1.1618433    1.1671706
O    5.7111087   -0.9033593    1.5473813
N    2.4162540    2.2088686   -0.4576684
C    2.0911256    2.0747245    0.8219591
C    3.0619944    2.3652754    1.9221722
H    2.5200056    2.8509660    2.7460650
H    3.4506101    1.3927503    2.2703941
H    3.8972230    3.0002914    1.6048113
C    3.7433522    2.5146596   -1.0045938
H    3.5587109    2.8089110   -2.0464240
H    4.1493518    3.3887509   -0.4758466
C    4.7092134    1.3302983   -0.9190122
H    5.6809498    1.6657261   -1.3237528
H    4.8918613    1.0874950    0.1379213
C    4.2255859    0.0896711   -1.6798565
H    3.1570612   -0.0757224   -1.4719489
H    4.2931224    0.2958808   -2.7623045
C    4.9979669   -1.1989503   -1.3506948
H    4.9798566   -1.8729500   -2.2200257
H    6.0545741   -0.9777644   -1.1281431
C    4.4217041   -1.9842377   -0.1471326
H    5.0094831   -2.9091417   -0.0299743
C   -4.9822824    1.6579308   -0.8592816
H   -5.8008142    2.1557746   -0.3102969
H   -5.3873559    1.4207916   -1.8551002
C   -3.2026009    1.1652193   -3.5094767
H   -3.9366937    1.9750656   -3.5964039
H   -2.6133449    1.1047684   -4.4353607
C   -4.6021587    0.3473645   -0.1597706
H   -3.8424841   -0.1806593   -0.7600242
H   -5.4910641   -0.3068179   -0.1589391
C   -4.0852902    0.5126820    1.2683944
H   -3.2079119    1.1709212    1.2687711
H   -4.8637198    0.9707714    1.8988355
O   -4.9885560   -2.8682928    1.8627872
O    3.4602185   -0.7923901    1.7089010
O    0.7191914   -0.8182812   -0.9842749
Fe   -0.1126912    0.9508808   -0.5431319
O   -1.1172155    0.7663304   -2.3676401
O   -1.5632555    2.3341677   -0.4161433
O    1.4554932    1.8818241   -1.3695622
O    0.9147994    1.6494134    1.0997761
H   -3.7374561    0.2097026   -3.3885121
$end

$rem
BASIS  =  gen
CIS_N_ROOTS  =  100
EXCHANGE  =  CAM-B3LYP
GUI  =  2
JOB_TYPE  =  SP
SCF_CONVERGENCE  =  8
SOLVENT_METHOD  =  PCM
UNRESTRICTED  =  1
BASIS GEN
PURECART 11
$end

$pcm
THEORY  CPCM
$end

$solvent
DIELECTRIC  78.39
$end

$van_der_waals
26   2.44
$end

!----------------------------------------------------------------------
! Basis Set Exchange
! Basis set: aug-cc-pVDZ
!----------------------------------------------------------------------

$basis
H     0
S   4   1.00
1.301000D+01           1.968500D-02
1.962000D+00           1.379770D-01
4.446000D-01           4.781480D-01
1.220000D-01           5.012400D-01
S   1   1.00
1.220000D-01           1.000000D+00
S   1   1.00
0.0297400              1.0000000
P   1   1.00
7.270000D-01           1.0000000
P   1   1.00
0.1410000              1.0000000
****
C     0
S   9   1.00
6.665000D+03           6.920000D-04
1.000000D+03           5.329000D-03
2.280000D+02           2.707700D-02
6.471000D+01           1.017180D-01
2.106000D+01           2.747400D-01
7.495000D+00           4.485640D-01
2.797000D+00           2.850740D-01
5.215000D-01           1.520400D-02
1.596000D-01          -3.191000D-03
S   9   1.00
6.665000D+03          -1.460000D-04
1.000000D+03          -1.154000D-03
2.280000D+02          -5.725000D-03
6.471000D+01          -2.331200D-02
2.106000D+01          -6.395500D-02
7.495000D+00          -1.499810D-01
2.797000D+00          -1.272620D-01
5.215000D-01           5.445290D-01
1.596000D-01           5.804960D-01
S   1   1.00
1.596000D-01           1.000000D+00
S   1   1.00
0.0469000              1.0000000
P   4   1.00
9.439000D+00           3.810900D-02
2.002000D+00           2.094800D-01
5.456000D-01           5.085570D-01
1.517000D-01           4.688420D-01
P   1   1.00
1.517000D-01           1.000000D+00
P   1   1.00
0.0404100              1.0000000
D   1   1.00
5.500000D-01           1.0000000
D   1   1.00
0.1510000              1.0000000
****
N     0
S   9   1.00
9.046000D+03           7.000000D-04
1.357000D+03           5.389000D-03
3.093000D+02           2.740600D-02
8.773000D+01           1.032070D-01
2.856000D+01           2.787230D-01
1.021000D+01           4.485400D-01
3.838000D+00           2.782380D-01
7.466000D-01           1.544000D-02
2.248000D-01          -2.864000D-03
S   9   1.00
9.046000D+03          -1.530000D-04
1.357000D+03          -1.208000D-03
3.093000D+02          -5.992000D-03
8.773000D+01          -2.454400D-02
2.856000D+01          -6.745900D-02
1.021000D+01          -1.580780D-01
3.838000D+00          -1.218310D-01
7.466000D-01           5.490030D-01
2.248000D-01           5.788150D-01
S   1   1.00
2.248000D-01           1.000000D+00
S   1   1.00
0.0612400              1.0000000
P   4   1.00
1.355000D+01           3.991900D-02
2.917000D+00           2.171690D-01
7.973000D-01           5.103190D-01
2.185000D-01           4.622140D-01
P   1   1.00
2.185000D-01           1.000000D+00
P   1   1.00
0.0561100              1.0000000
D   1   1.00
8.170000D-01           1.0000000
D   1   1.00
0.2300000              1.0000000
****
O     0
S   9   1.00
1.172000D+04           7.100000D-04
1.759000D+03           5.470000D-03
4.008000D+02           2.783700D-02
1.137000D+02           1.048000D-01
3.703000D+01           2.830620D-01
1.327000D+01           4.487190D-01
5.025000D+00           2.709520D-01
1.013000D+00           1.545800D-02
3.023000D-01          -2.585000D-03
S   9   1.00
1.172000D+04          -1.600000D-04
1.759000D+03          -1.263000D-03
4.008000D+02          -6.267000D-03
1.137000D+02          -2.571600D-02
3.703000D+01          -7.092400D-02
1.327000D+01          -1.654110D-01
5.025000D+00          -1.169550D-01
1.013000D+00           5.573680D-01
3.023000D-01           5.727590D-01
S   1   1.00
3.023000D-01           1.000000D+00
S   1   1.00
0.0789600              1.0000000
P   4   1.00
1.770000D+01           4.301800D-02
3.854000D+00           2.289130D-01
1.046000D+00           5.087280D-01
2.753000D-01           4.605310D-01
P   1   1.00
2.753000D-01           1.000000D+00
P   1   1.00
0.0685600              1.0000000
D   1   1.00
1.185000D+00           1.0000000
D   1   1.00
0.3320000              1.0000000
****
Fe     0
S   20   1.00
4.316265D+06           8.048803D-06
6.463424D+05           6.258306D-05
1.470897D+05           3.290239D-04
4.166152D+04           1.387355D-03
1.359077D+04           5.023256D-03
4.905750D+03           1.610140D-02
1.912746D+03           4.590034D-02
7.926043D+02           1.136154D-01
3.448065D+02           2.283869D-01
1.558999D+02           3.221159D-01
7.223091D+01           2.383661D-01
3.272506D+01           7.404667D-02
1.566762D+01           9.214197D-02
7.503483D+00           9.339790D-02
3.312223D+00           1.573965D-02
1.558471D+00          -4.186682D-04
6.839140D-01           5.376318D-05
1.467570D-01          -3.816654D-05
7.058300D-02           4.319603D-05
3.144900D-02          -3.401019D-06
S   20   1.00
4.316265D+06          -4.155954D-06
6.463424D+05          -3.231401D-05
1.470897D+05          -1.699525D-04
4.166152D+04          -7.171369D-04
1.359077D+04          -2.603625D-03
4.905750D+03          -8.399109D-03
1.912746D+03          -2.434109D-02
7.926043D+02          -6.251948D-02
3.448065D+02          -1.365929D-01
1.558999D+02          -2.312707D-01
7.223091D+01          -2.383734D-01
3.272506D+01           3.123837D-02
1.566762D+01           5.086818D-01
7.503483D+00           4.987695D-01
3.312223D+00           9.033552D-02
1.558471D+00          -6.005337D-03
6.839140D-01           2.312454D-04
1.467570D-01          -5.643680D-04
7.058300D-02           4.992260D-04
3.144900D-02          -1.015293D-04
S   20   1.00
4.316265D+06           9.532178D-07
6.463424D+05           7.414605D-06
1.470897D+05           3.898393D-05
4.166152D+04           1.647152D-04
1.359077D+04           5.985980D-04
4.905750D+03           1.942390D-03
1.912746D+03           5.687237D-03
7.926043D+02           1.501329D-02
3.448065D+02           3.452455D-02
1.558999D+02           6.495820D-02
7.223091D+01           7.716194D-02
3.272506D+01          -1.873411D-02
1.566762D+01          -3.009185D-01
7.503483D+00          -4.554661D-01
3.312223D+00           1.286463D-01
1.558471D+00           7.183316D-01
6.839140D-01           4.051743D-01
1.467570D-01           2.168227D-02
7.058300D-02          -8.343566D-03
3.144900D-02           3.658979D-03
S   20   1.00
4.316265D+06          -2.063008D-07

             Standard Nuclear Orientation (Angstroms)
    I     Atom           X                Y                Z
 ----------------------------------------------------------------
    1      C      -2.2496238000     1.3623694000    -2.3699220000
    2      C      -3.7181727000    -0.8202696000     1.9479104000
    3      H      -3.2435504000    -0.5778733000     2.9171162000
    4      N      -2.8268565000    -1.6730349000     1.1719181000
    5      H      -3.2176520000    -2.6129590000     1.0661820000
    6      C      -4.9909835000    -1.6714986000     2.2701248000
    7      O      -5.8945273000    -1.0831460000     2.9108757000
    8      C      -1.6570871000    -1.3281780000     0.6199004000
    9      O      -1.2338185000    -0.1295772000     0.7849514000
   10      N      -2.5436252000     2.1558163000    -1.3478349000
   11      C      -3.8615943000     2.7051329000    -0.9978289000
   12      H      -4.1483903000     3.4680528000    -1.7387248000
   13      H      -3.6822883000     3.2189117000    -0.0471109000
   14      C      -0.9115930000    -2.3231899000    -0.1142796000
   15      H      -1.2583068000    -3.3563363000    -0.0843928000
   16      C       0.2300620000    -2.0140422000    -0.8239271000
   17      C       1.0137174000    -3.1076044000    -1.5214367000
   18      H       0.8695113000    -2.9994887000    -2.6098432000
   19      H       0.6375340000    -4.1048917000    -1.2471112000
   20      C       2.5369156000    -3.1003155000    -1.3256200000
   21      O       3.2492912000    -3.8122363000    -2.0488439000
   22      N       3.0198530000    -2.3172454000    -0.3465404000
   23      H       2.3996465000    -1.6944458000     0.1663513000
   24      C       4.5437667000    -1.1618433000     1.1671706000
   25      O       5.7111087000    -0.9033593000     1.5473813000
   26      N       2.4162540000     2.2088686000    -0.4576684000
   27      C       2.0911256000     2.0747245000     0.8219591000
   28      C       3.0619944000     2.3652754000     1.9221722000
   29      H       2.5200056000     2.8509660000     2.7460650000
   30      H       3.4506101000     1.3927503000     2.2703941000
   31      H       3.8972230000     3.0002914000     1.6048113000
   32      C       3.7433522000     2.5146596000    -1.0045938000
   33      H       3.5587109000     2.8089110000    -2.0464240000
   34      H       4.1493518000     3.3887509000    -0.4758466000
   35      C       4.7092134000     1.3302983000    -0.9190122000
   36      H       5.6809498000     1.6657261000    -1.3237528000
   37      H       4.8918613000     1.0874950000     0.1379213000
   38      C       4.2255859000     0.0896711000    -1.6798565000
   39      H       3.1570612000    -0.0757224000    -1.4719489000
   40      H       4.2931224000     0.2958808000    -2.7623045000
   41      C       4.9979669000    -1.1989503000    -1.3506948000
   42      H       4.9798566000    -1.8729500000    -2.2200257000
   43      H       6.0545741000    -0.9777644000    -1.1281431000
   44      C       4.4217041000    -1.9842377000    -0.1471326000
   45      H       5.0094831000    -2.9091417000    -0.0299743000
   46      C      -4.9822824000     1.6579308000    -0.8592816000
   47      H      -5.8008142000     2.1557746000    -0.3102969000
   48      H      -5.3873559000     1.4207916000    -1.8551002000
   49      C      -3.2026009000     1.1652193000    -3.5094767000
   50      H      -3.9366937000     1.9750656000    -3.5964039000
   51      H      -2.6133449000     1.1047684000    -4.4353607000
   52      C      -4.6021587000     0.3473645000    -0.1597706000
   53      H      -3.8424841000    -0.1806593000    -0.7600242000
   54      H      -5.4910641000    -0.3068179000    -0.1589391000
   55      C      -4.0852902000     0.5126820000     1.2683944000
   56      H      -3.2079119000     1.1709212000     1.2687711000
   57      H      -4.8637198000     0.9707714000     1.8988355000
   58      O      -4.9885560000    -2.8682928000     1.8627872000
   59      O       3.4602185000    -0.7923901000     1.7089010000
   60      O       0.7191914000    -0.8182812000    -0.9842749000
   61      Fe     -0.1126912000     0.9508808000    -0.5431319000
   62      O      -1.1172155000     0.7663304000    -2.3676401000
   63      O      -1.5632555000     2.3341677000    -0.4161433000
   64      O       1.4554932000     1.8818241000    -1.3695622000
   65      O       0.9147994000     1.6494134000     1.0997761000
   66      H      -3.7374561000     0.2097026000    -3.3885121000
 ----------------------------------------------------------------

   20   -3127.9232786739      6.02e-09  Convergence criterion met
 Total energy in the final basis set =    -3127.9232786739

         TDDFT/TDA Excitation Energies
 ---------------------------------------------------

 Excited state   1: excitation energy (eV) =    2.3413
 Total energy for state  1:                 -3127.83723607 au
    <S**2>     :  8.7973
    Trans. Mom.:  0.1109 X   0.0114 Y  -0.0145 Z
    Strength   :     0.0007245109
    D(  146) --> S(    1) amplitude = -0.3322 beta
    D(  147) --> S(    1) amplitude =  0.8500 beta
    D(  147) --> S(    2) amplitude = -0.3263 beta

 Excited state   2: excitation energy (eV) =    2.4891
 Total energy for state  2:                 -3127.83180561 au
    <S**2>     :  8.7983
    Trans. Mom.:  0.1891 X   0.2285 Y  -0.0311 Z
    Strength   :     0.0054232777
    D(  145) --> S(    1) amplitude =  0.4398 beta
    D(  146) --> S(    2) amplitude = -0.2840 beta
    D(  147) --> S(    1) amplitude =  0.3206 beta
    D(  147) --> S(    2) amplitude =  0.7337 beta

 Excited state   3: excitation energy (eV) =    2.5714
 Total energy for state  3:                 -3127.82878006 au
    <S**2>     :  8.8088
    Trans. Mom.: -0.0378 X  -0.1456 Y   0.0250 Z
    Strength   :     0.0014646343
    D(  145) --> S(    1) amplitude =  0.7093 beta
    D(  145) --> S(    2) amplitude = -0.4586 beta
    D(  145) --> S(    3) amplitude =  0.1505 beta
    D(  147) --> S(    2) amplitude = -0.4338 beta

 Excited state   4: excitation energy (eV) =    2.6294
 Total energy for state  4:                 -3127.82664856 au
    <S**2>     :  8.7807
    Trans. Mom.: -0.9030 X   0.0234 Y  -0.2691 Z
    Strength   :     0.0572320054
    D(  146) --> S(    3) amplitude = -0.3424 beta
    D(  147) --> S(    3) amplitude =  0.8995 beta

 Excited state   5: excitation energy (eV) =    2.7075
 Total energy for state  5:                 -3127.82378157 au
    <S**2>     :  8.8119
    Trans. Mom.: -0.3105 X   0.0199 Y  -0.0344 Z
    Strength   :     0.0065004448
    D(  145) --> S(    1) amplitude =  0.4092 beta
    D(  145) --> S(    2) amplitude =  0.7893 beta
    D(  145) --> S(    3) amplitude =  0.3367 beta

 Excited state   6: excitation energy (eV) =    2.9873
 Total energy for state  6:                 -3127.81349824 au
    <S**2>     :  8.8981
    Trans. Mom.:  0.2688 X   0.6876 Y  -0.2154 Z
    Strength   :     0.0432808155
    D(  145) --> S(    1) amplitude = -0.2313 beta
    D(  145) --> S(    2) amplitude = -0.2061 beta
    D(  145) --> S(    3) amplitude =  0.6898 beta
    D(  146) --> S(    1) amplitude =  0.4383 beta
    D(  146) --> S(    3) amplitude =  0.1764 beta
    D(  147) --> S(    1) amplitude =  0.1935 beta

 Excited state   7: excitation energy (eV) =    3.1363
 Total energy for state  7:                 -3127.80802267 au
    <S**2>     :  9.1691
    Trans. Mom.:  0.1201 X  -0.0342 Y  -0.0523 Z
    Strength   :     0.0014084511
    S(    5) --> V(    5) amplitude = -0.1786 alpha
    D(  145) --> S(    3) amplitude = -0.4405 beta
    D(  146) --> S(    1) amplitude =  0.6790 beta
    D(  147) --> S(    1) amplitude =  0.2452 beta

 Excited state   8: excitation energy (eV) =    3.2577
 Total energy for state  8:                 -3127.80356033 au
    <S**2>     :  8.8638
    Trans. Mom.:  0.0262 X   0.0545 Y  -0.0315 Z
    Strength   :     0.0003709387
    D(  146) --> S(    2) amplitude =  0.8415 beta
    D(  146) --> S(    3) amplitude = -0.2049 beta
    D(  147) --> S(    2) amplitude =  0.2911 beta

 Excited state   9: excitation energy (eV) =    3.4287
 Total energy for state  9:                 -3127.79727595 au
    <S**2>     :  8.8165
    Trans. Mom.: -0.1073 X  -0.0712 Y   0.0024 Z
    Strength   :     0.0013940578
    D(  146) --> S(    3) amplitude = -0.5463 beta
    D(  146) --> S(    4) amplitude = -0.2879 beta
    D(  147) --> S(    3) amplitude = -0.1939 beta
    D(  147) --> S(    4) amplitude =  0.6282 beta

 Excited state  10: excitation energy (eV) =    3.4340
 Total energy for state 10:                 -3127.79708199 au
    <S**2>     :  8.8095
    Trans. Mom.: -0.0161 X   0.0158 Y   0.0705 Z
    Strength   :     0.0004604012
    D(  145) --> S(    3) amplitude = -0.1815 beta
    D(  146) --> S(    3) amplitude =  0.6275 beta
    D(  146) --> S(    4) amplitude = -0.1774 beta
    D(  147) --> S(    3) amplitude =  0.2554 beta
    D(  147) --> S(    4) amplitude =  0.5657 beta

 Excited state  11: excitation energy (eV) =    3.6068
 Total energy for state 11:                 -3127.79073067 au
    <S**2>     :  8.8606
    Trans. Mom.: -0.0056 X  -0.0171 Y   0.0175 Z
    Strength   :     0.0000553598
    D(  145) --> S(    4) amplitude =  0.6827 beta
    D(  145) --> S(    5) amplitude = -0.2278 beta
    D(  146) --> S(    5) amplitude =  0.2107 beta
    D(  147) --> S(    5) amplitude = -0.5534 beta

 Excited state  12: excitation energy (eV) =    3.6681
 Total energy for state 12:                 -3127.78847771 au
    <S**2>     :  9.9874
    Trans. Mom.:  0.1493 X   0.2310 Y  -0.0748 Z
    Strength   :     0.0073003144
    S(    5) --> V(    2) amplitude =  0.3365 alpha
    S(    5) --> V(    5) amplitude =  0.4264 alpha
    D(  146) --> S(    1) amplitude =  0.3152 beta
    D(  146) --> S(    2) amplitude =  0.1603 beta
    D(  146) --> S(    4) amplitude = -0.3012 beta
    D(  146) --> S(    5) amplitude = -0.1689 beta
    D(  146) --> V(    5) amplitude =  0.1724 beta
    D(  146) --> V(    8) amplitude =  0.2900 beta
    D(  147) --> S(    5) amplitude = -0.2268 beta

 Excited state  13: excitation energy (eV) =    3.7680
 Total energy for state 13:                 -3127.78480777 au
    <S**2>     :  8.8078
    Trans. Mom.: -0.0600 X   0.0097 Y   0.0294 Z
    Strength   :     0.0004204604
    D(  135) --> S(    1) amplitude =  0.5537 beta
    D(  138) --> S(    1) amplitude =  0.4912 beta
    D(  139) --> S(    1) amplitude =  0.3594 beta
    D(  140) --> S(    1) amplitude =  0.2306 beta
    D(  143) --> S(    1) amplitude = -0.1516 beta
    D(  144) --> S(    1) amplitude = -0.2786 beta

 Excited state  14: excitation energy (eV) =    3.8240
 Total energy for state 14:                 -3127.78274806 au
    <S**2>     :  8.8556
    Trans. Mom.: -0.0019 X   0.0094 Y  -0.0373 Z
    Strength   :     0.0001391615
    D(  145) --> S(    4) amplitude =  0.5781 beta
    D(  146) --> S(    5) amplitude = -0.2414 beta
    D(  147) --> S(    4) amplitude =  0.2309 beta
    D(  147) --> S(    5) amplitude =  0.5935 beta
    D(  147) --> V(    8) amplitude =  0.1605 beta

 Excited state  15: excitation energy (eV) =    3.9240
 Total energy for state 15:                 -3127.77907510 au
    <S**2>     :  8.8116
    Trans. Mom.: -0.0824 X  -0.2831 Y   0.0658 Z
    Strength   :     0.0087726873
    D(  135) --> S(    2) amplitude =  0.5402 beta
    D(  138) --> S(    2) amplitude =  0.4769 beta
    D(  139) --> S(    2) amplitude =  0.3460 beta
    D(  140) --> S(    2) amplitude =  0.2246 beta
    D(  144) --> S(    2) amplitude = -0.2642 beta

 Excited state  16: excitation energy (eV) =    3.9639
 Total energy for state 16:                 -3127.77760635 au
    <S**2>     :  8.8000
    Trans. Mom.: -0.1568 X  -0.0144 Y  -0.0385 Z
    Strength   :     0.0025527769
    D(  145) --> S(    5) amplitude =  0.8552 beta
    D(  145) --> V(    8) amplitude =  0.1863 beta
    D(  146) --> S(    5) amplitude =  0.1829 beta
    D(  147) --> S(    4) amplitude =  0.1545 beta

 Excited state  17: excitation energy (eV) =    4.0317
 Total energy for state 17:                 -3127.77511563 au
    <S**2>     :  8.7821
    Trans. Mom.:  0.0434 X   0.0902 Y   0.0224 Z
    Strength   :     0.0010385178
    D(  135) --> S(    1) amplitude = -0.1621 beta
    D(  135) --> S(    3) amplitude =  0.5583 beta
    D(  138) --> S(    3) amplitude =  0.4773 beta
    D(  139) --> S(    3) amplitude =  0.3461 beta
    D(  140) --> S(    3) amplitude =  0.2164 beta
    D(  144) --> S(    3) amplitude = -0.2662 beta

 Excited state  18: excitation energy (eV) =    4.1450
 Total energy for state 18:                 -3127.77095374 au
    <S**2>     : 10.4657
    Trans. Mom.: -0.0302 X   0.0037 Y  -0.0037 Z
    Strength   :     0.0000951839
    S(    3) --> V(   13) amplitude = -0.2272 alpha
    S(    3) --> V(   14) amplitude = -0.1557 alpha
    S(    3) --> V(   16) amplitude = -0.2526 alpha
    S(    3) --> V(   17) amplitude =  0.2707 alpha
    S(    3) --> V(   19) amplitude =  0.1592 alpha
    S(    4) --> V(   16) amplitude =  0.1691 alpha
    S(    4) --> V(   17) amplitude = -0.1614 alpha
    D(  145) --> V(   16) amplitude = -0.1757 beta
    D(  145) --> V(   17) amplitude = -0.1715 beta
    D(  145) --> V(   18) amplitude =  0.1635 beta
    D(  147) --> V(   16) amplitude = -0.2014 beta
    D(  147) --> V(   17) amplitude = -0.1861 beta
    D(  147) --> V(   18) amplitude =  0.1677 beta

 Excited state  19: excitation energy (eV) =    4.2991
 Total energy for state 19:                 -3127.76528877 au
    <S**2>     : 10.4205
    Trans. Mom.:  0.0147 X   0.0018 Y   0.0052 Z
    Strength   :     0.0000260727
    S(    3) --> V(   18) amplitude = -0.1952 alpha
    S(    4) --> V(   17) amplitude = -0.2433 alpha
    S(    4) --> V(   18) amplitude = -0.3231 alpha
    S(    4) --> V(   19) amplitude =  0.1738 alpha
    S(    4) --> V(   20) amplitude = -0.1740 alpha
    S(    4) --> V(   25) amplitude =  0.1675 alpha
    D(  145) --> V(   18) amplitude = -0.1798 beta
    D(  145) --> V(   20) amplitude = -0.2125 beta
    D(  145) --> V(   25) amplitude =  0.1875 beta
    D(  147) --> V(   18) amplitude =  0.2014 beta
    D(  147) --> V(   20) amplitude =  0.2045 beta
    D(  147) --> V(   25) amplitude = -0.1832 beta

 Excited state  20: excitation energy (eV) =    4.3853
 Total energy for state 20:                 -3127.76212170 au
    <S**2>     :  8.8512
    Trans. Mom.:  0.2557 X   0.0091 Y  -0.1761 Z
    Strength   :     0.0103659207
    D(  133) --> S(    2) amplitude = -0.4254 beta
    D(  133) --> S(    3) amplitude =  0.2042 beta
    D(  134) --> S(    1) amplitude = -0.3195 beta
    D(  134) --> S(    2) amplitude =  0.1805 beta
    D(  134) --> S(    3) amplitude = -0.2169 beta
    D(  146) --> S(    4) amplitude =  0.4349 beta
    D(  146) --> S(    5) amplitude = -0.2590 beta
    D(  147) --> S(    4) amplitude =  0.1720 beta

 Excited state  21: excitation energy (eV) =    4.3950
 Total energy for state 21:                 -3127.76176528 au
    <S**2>     :  8.7915
    Trans. Mom.: -0.1946 X   0.0483 Y  -0.1078 Z
    Strength   :     0.0055829373
    D(  132) --> S(    3) amplitude =  0.1766 beta
    D(  133) --> S(    1) amplitude = -0.3089 beta
    D(  133) --> S(    2) amplitude = -0.2015 beta
    D(  133) --> S(    3) amplitude =  0.2788 beta
    D(  134) --> S(    1) amplitude =  0.5917 beta
    D(  134) --> S(    3) amplitude = -0.3812 beta

 Excited state  22: excitation energy (eV) =    4.3985
 Total energy for state 22:                 -3127.76163583 au
    <S**2>     :  8.8283
    Trans. Mom.:  0.0102 X  -0.1123 Y  -0.0986 Z
    Strength   :     0.0024176592
    D(  133) --> S(    1) amplitude = -0.2419 beta
    D(  133) --> S(    2) amplitude =  0.3931 beta
    D(  134) --> S(    2) amplitude = -0.1859 beta
    D(  146) --> S(    4) amplitude =  0.5699 beta
    D(  146) --> S(    5) amplitude = -0.2527 beta
    D(  147) --> S(    4) amplitude =  0.2366 beta

 Excited state  23: excitation energy (eV) =    4.4453
 Total energy for state 23:                 -3127.75991693 au
    <S**2>     :  8.8081
    Trans. Mom.:  0.2118 X   0.1260 Y  -0.1850 Z
    Strength   :     0.0103435420
    D(  126) --> S(    1) amplitude =  0.1615 beta
    D(  131) --> S(    1) amplitude = -0.3019 beta
    D(  133) --> S(    1) amplitude =  0.3300 beta
    D(  133) --> S(    2) amplitude = -0.1677 beta
    D(  134) --> S(    1) amplitude =  0.4267 beta
    D(  134) --> S(    3) amplitude =  0.4504 beta
    D(  136) --> S(    1) amplitude = -0.2087 beta
    D(  146) --> S(    4) amplitude =  0.2780 beta

 Excited state  24: excitation energy (eV) =    4.4578
 Total energy for state 24:                 -3127.75945742 au
    <S**2>     :  8.7952
    Trans. Mom.: -0.0030 X  -0.1019 Y   0.0172 Z
    Strength   :     0.0011677153
    D(  131) --> S(    1) amplitude =  0.1545 beta
    D(  131) --> S(    3) amplitude = -0.2266 beta
    D(  133) --> S(    1) amplitude = -0.4847 beta
    D(  133) --> S(    3) amplitude =  0.1734 beta
    D(  134) --> S(    2) amplitude =  0.3933 beta
    D(  134) --> S(    3) amplitude =  0.4692 beta
    D(  136) --> S(    1) amplitude =  0.1949 beta

 Excited state  25: excitation energy (eV) =    4.4809
 Total energy for state 25:                 -3127.75860735 au
    <S**2>     :  8.8524
    Trans. Mom.:  0.4785 X  -0.1442 Y  -0.2456 Z
    Strength   :     0.0340422411
    S(    5) --> V(    5) amplitude =  0.1608 alpha
    D(  134) --> S(    1) amplitude = -0.2113 beta
    D(  134) --> S(    3) amplitude = -0.1819 beta
    D(  146) --> S(    4) amplitude =  0.2243 beta
    D(  146) --> S(    5) amplitude =  0.7032 beta
    D(  146) --> V(    8) amplitude =  0.1727 beta
    D(  147) --> S(    5) amplitude =  0.2641 beta

 Excited state  26: excitation energy (eV) =    4.5946
 Total energy for state 26:                 -3127.75443034 au
    <S**2>     :  8.8412
    Trans. Mom.:  0.0353 X  -0.1345 Y   0.0254 Z
    Strength   :     0.0022483184
    D(  126) --> S(    2) amplitude = -0.1672 beta
    D(  131) --> S(    1) amplitude =  0.1751 beta
    D(  131) --> S(    2) amplitude =  0.3386 beta
    D(  133) --> S(    2) amplitude = -0.2710 beta
    D(  134) --> S(    2) amplitude = -0.5938 beta
    D(  134) --> S(    3) amplitude =  0.2431 beta
    D(  136) --> S(    1) amplitude =  0.2818 beta
    D(  136) --> S(    2) amplitude =  0.1753 beta
    D(  139) --> S(    1) amplitude = -0.1831 beta

 Excited state  27: excitation energy (eV) =    4.6486
 Total energy for state 27:                 -3127.75244737 au
    <S**2>     :  8.8590
    Trans. Mom.: -0.0218 X   0.0726 Y   0.0048 Z
    Strength   :     0.0006569508
    D(  131) --> S(    3) amplitude =  0.2442 beta
    D(  133) --> S(    3) amplitude = -0.4967 beta
    D(  134) --> S(    2) amplitude =  0.4154 beta
    D(  134) --> S(    3) amplitude = -0.1757 beta
    D(  136) --> S(    1) amplitude =  0.3026 beta
    D(  136) --> S(    3) amplitude =  0.3095 beta
    D(  139) --> S(    1) amplitude = -0.1927 beta
    D(  139) --> S(    3) amplitude = -0.1517 beta

 Excited state  28: excitation energy (eV) =    4.6635
 Total energy for state 28:                 -3127.75189893 au
    <S**2>     :  8.9167
    Trans. Mom.: -0.0894 X  -0.0693 Y   0.0986 Z
    Strength   :     0.0025742308
    D(  133) --> S(    1) amplitude =  0.4626 beta
    D(  133) --> S(    3) amplitude =  0.3655 beta
    D(  136) --> S(    1) amplitude =  0.4127 beta
    D(  136) --> S(    2) amplitude = -0.2295 beta
    D(  138) --> S(    1) amplitude =  0.1698 beta
    D(  139) --> S(    1) amplitude = -0.3101 beta

 Excited state  29: excitation energy (eV) =    4.7590
 Total energy for state 29:                 -3127.74838999 au
    <S**2>     :  8.8635
    Trans. Mom.: -0.0567 X   0.0158 Y   0.0735 Z
    Strength   :     0.0010331440
    D(  131) --> S(    2) amplitude =  0.2110 beta
    D(  133) --> S(    2) amplitude =  0.4173 beta
    D(  133) --> S(    3) amplitude =  0.2235 beta
    D(  134) --> S(    2) amplitude =  0.2036 beta
    D(  136) --> S(    2) amplitude =  0.5142 beta
    D(  138) --> S(    2) amplitude =  0.2006 beta
    D(  139) --> S(    2) amplitude = -0.3788 beta

 Excited state  30: excitation energy (eV) =    4.9086
 Total energy for state 30:                 -3127.74289249 au
    <S**2>     :  8.9085
    Trans. Mom.:  0.0828 X   0.0704 Y  -0.0758 Z
    Strength   :     0.0021102387
    D(  131) --> S(    1) amplitude =  0.1667 beta
    D(  131) --> S(    2) amplitude = -0.1880 beta
    D(  132) --> S(    1) amplitude = -0.3008 beta
    D(  132) --> S(    2) amplitude =  0.1909 beta
    D(  133) --> S(    2) amplitude = -0.1580 beta
    D(  135) --> S(    4) amplitude =  0.2163 beta
    D(  136) --> S(    3) amplitude =  0.3948 beta
    D(  138) --> S(    4) amplitude =  0.1858 beta
    D(  139) --> S(    3) amplitude = -0.2811 beta
    D(  139) --> S(    4) amplitude =  0.1576 beta

 Excited state  31: excitation energy (eV) =    4.9274
 Total energy for state 31:                 -3127.74220133 au
    <S**2>     :  9.1664
    Trans. Mom.:  0.0196 X   0.1638 Y   0.0484 Z
    Strength   :     0.0035685062
    D(  128) --> S(    1) amplitude = -0.1743 beta
    D(  129) --> S(    1) amplitude =  0.1559 beta
    D(  131) --> S(    1) amplitude =  0.3328 beta
    D(  132) --> S(    1) amplitude =  0.1610 beta
    D(  132) --> S(    2) amplitude = -0.1748 beta
    D(  133) --> S(    3) amplitude =  0.1771 beta
    D(  134) --> S(    1) amplitude =  0.1647 beta
    D(  135) --> S(    4) amplitude = -0.2341 beta
    D(  136) --> S(    1) amplitude = -0.1682 beta
    D(  136) --> S(    2) amplitude = -0.1865 beta
    D(  136) --> S(    3) amplitude =  0.2306 beta
    D(  138) --> S(    4) amplitude = -0.2241 beta
    D(  139) --> S(    3) amplitude = -0.1525 beta

 Excited state  32: excitation energy (eV) =    4.9451
 Total energy for state 32:                 -3127.74154802 au
    <S**2>     :  9.0092
    Trans. Mom.: -0.0682 X  -0.0026 Y  -0.0756 Z
    Strength   :     0.0012574525
    D(  124) --> S(    1) amplitude = -0.1680 beta
    D(  130) --> S(    1) amplitude =  0.2386 beta
    D(  132) --> S(    1) amplitude = -0.5771 beta
    D(  132) --> S(    2) amplitude =  0.2573 beta
    D(  133) --> S(    1) amplitude =  0.1821 beta
    D(  133) --> S(    2) amplitude = -0.1728 beta
    D(  133) --> S(    3) amplitude = -0.1631 beta
    D(  135) --> S(    4) amplitude = -0.2564 beta
    D(  136) --> S(    3) amplitude = -0.1703 beta
    D(  138) --> S(    4) amplitude = -0.2244 beta

 Excited state 100: excitation energy (eV) =    6.1392

                    Orbital Energies (a.u.)
 --------------------------------------------------------------

 Alpha MOs
 -- Occupied --
******** -30.2386 -26.0936 -26.0909 -26.0900 -19.2166 -19.2159 -19.2157
-19.2136 -19.2038 -19.2014 -19.1870 -19.1689 -19.1645 -19.1643 -19.1625
-14.4918 -14.4910 -14.4192 -14.4137 -10.3688 -10.3678 -10.3667 -10.3633
-10.3490 -10.3453 -10.3322 -10.2944 -10.2926 -10.2874 -10.2837 -10.2653
-10.2647 -10.2558 -10.2545 -10.2479 -10.2457 -10.2442 -10.2397 -10.2392
-10.2379  -3.7310  -2.5095  -2.5043  -2.5018  -1.1746  -1.1724  -1.1284
 -1.1189  -1.1131  -1.1089  -1.1002  -1.0991  -1.0964  -1.0265  -1.0222
 -0.9995  -0.9962  -0.9430  -0.9404  -0.8803  -0.8767  -0.8607  -0.8428
 -0.8315  -0.8162  -0.8071  -0.7983  -0.7764  -0.7658  -0.7263  -0.7167
 -0.6795  -0.6713  -0.6540  -0.6430  -0.6322  -0.6182  -0.6154  -0.6102
 -0.6014  -0.5955  -0.5859  -0.5808  -0.5740  -0.5684  -0.5647  -0.5597
 -0.5551  -0.5491  -0.5453  -0.5387  -0.5310  -0.5293  -0.5247  -0.5238
 -0.5171  -0.5157  -0.5114  -0.5081  -0.5072  -0.5025  -0.4973  -0.4952
 -0.4937  -0.4846  -0.4809  -0.4796  -0.4764  -0.4754  -0.4716  -0.4677
 -0.4649  -0.4613  -0.4601  -0.4574  -0.4530  -0.4520  -0.4464  -0.4427
 -0.4374  -0.4351  -0.4302  -0.4285  -0.4257  -0.4102  -0.4071  -0.4026
 -0.3942  -0.3906  -0.3862  -0.3829  -0.3814  -0.3782  -0.3748  -0.3710
 -0.3643  -0.3485  -0.3347  -0.3282  -0.3258  -0.3242  -0.3175  -0.3134
 -0.3110  -0.3082  -0.3057  -0.3036  -0.2982  -0.2774  -0.2765  -0.2716

 Beta MOs
 -- Occupied --
******** -30.1432 -26.0135 -26.0121 -26.0114 -19.2134 -19.2124 -19.2106
-19.2088 -19.2008 -19.1977 -19.1870 -19.1689 -19.1645 -19.1643 -19.1625
-14.4915 -14.4906 -14.4189 -14.4137 -10.3689 -10.3677 -10.3669 -10.3634
-10.3490 -10.3453 -10.3323 -10.2944 -10.2926 -10.2874 -10.2837 -10.2652
-10.2646 -10.2557 -10.2545 -10.2479 -10.2457 -10.2442 -10.2397 -10.2392
-10.2376  -3.5102  -2.2710  -2.2692  -2.2683  -1.1694  -1.1672  -1.1242
 -1.1187  -1.1125  -1.1089  -1.0935  -1.0918  -1.0899  -1.0263  -1.0222
 -0.9980  -0.9960  -0.9382  -0.9353  -0.8797  -0.8762  -0.8594  -0.8422
 -0.8307  -0.8148  -0.8056  -0.7973  -0.7758  -0.7654  -0.7254  -0.7160
 -0.6773  -0.6701  -0.6524  -0.6387  -0.6308  -0.6111  -0.6037  -0.6024
 -0.5989  -0.5850  -0.5773  -0.5726  -0.5689  -0.5642  -0.5579  -0.5518
 -0.5493  -0.5461  -0.5397  -0.5339  -0.5264  -0.5258  -0.5151  -0.5101
 -0.5064  -0.5026  -0.5001  -0.4966  -0.4915  -0.4862  -0.4817  -0.4802
 -0.4750  -0.4744  -0.4710  -0.4690  -0.4648  -0.4606  -0.4594  -0.4590
 -0.4533  -0.4468  -0.4432  -0.4395  -0.4380  -0.4309  -0.4299  -0.4268
 -0.4110  -0.4064  -0.4000  -0.3941  -0.3915  -0.3856  -0.3830  -0.3816
 -0.3788  -0.3749  -0.3705  -0.3678  -0.3606  -0.3583  -0.3357  -0.3335
 -0.3255  -0.3213  -0.3181  -0.3111  -0.3110  -0.3057  -0.3055  -0.2989
 -0.2837  -0.2729  -0.2640

          Ground-State Mulliken Net Atomic Charges

     Atom                 Charge (a.u.)    Spin (a.u.)
  --------------------------------------------------------
      1 C                    -0.786200      -0.017140
      2 C                     1.155418      -0.002605
      3 H                    -0.605912       0.000144
      4 N                    -0.056670       0.004836
      5 H                    -0.103014       0.000633
      6 C                     0.875510      -0.000250
      7 O                    -0.883307       0.000064
      8 C                    -1.125330      -0.006918
      9 O                    -0.536230       0.093334
     10 N                     1.231661       0.026376
     11 C                     1.067633      -0.000402
     12 H                    -0.628359       0.000593
     13 H                    -0.707097       0.000254
     14 C                     3.227174       0.044043
     15 H                    -1.468470      -0.001029
     16 C                    -0.572793      -0.037832
     17 C                     0.976291       0.009948
     18 H                    -0.260453      -0.000261
     19 H                    -0.506490       0.000545
     20 C                     0.511574       0.002324
     21 O                    -0.955378      -0.000314
     22 N                     0.450526       0.000935
     23 H                    -0.043550      -0.000274
     24 C                     0.907625      -0.000560
     25 O                    -0.990708      -0.000018
     26 N                     1.193786       0.026152
     27 C                    -0.948263      -0.030233
     28 C                     1.905099       0.006405
     29 H                    -0.483814      -0.000076
     30 H                    -0.187730       0.000629
     31 H                    -0.388620       0.000387
     32 C                     1.148797      -0.001623
     33 H                    -0.723460       0.000149
     34 H                    -0.577265       0.001092
     35 C                     1.339683       0.001530
     36 H                    -0.563351       0.000134
     37 H                    -0.716478      -0.000143
     38 C                     1.299739      -0.001502
     39 H                    -1.070534       0.002144
     40 H                    -0.627698      -0.000158
     41 C                     1.443366       0.000856
     42 H                    -0.470983       0.000113
     43 H                    -0.595130      -0.000005
     44 C                     0.712803       0.000062
     45 H                    -0.771788       0.000063
     46 C                     1.155925       0.000813
     47 H                    -0.475223       0.000062
     48 H                    -0.413839      -0.000048
     49 C                     1.657742       0.002270
     50 H                    -0.304417       0.000264
     51 H                    -0.506053      -0.000339
     52 C                     1.486937      -0.000373
     53 H                    -0.597486       0.000799
     54 H                    -0.701403       0.000013
     55 C                     0.973791       0.004220
     56 H                    -0.729583      -0.000687
     57 H                    -0.646259       0.000113
     58 O                    -0.894014       0.000225
     59 O                    -0.850141      -0.000310
     60 O                    -0.644654       0.123210
     61 Fe                    2.436700       4.241664
     62 O                    -0.801881       0.092716
     63 O                    -1.206228       0.149804
     64 O                    -1.157675       0.159218
     65 O                    -0.782704       0.104102
     66 H                    -0.091140      -0.000136
  --------------------------------------------------------
  Sum of atomic charges =    -2.000000

                    Cartesian Multipole Moments
 -----------------------------------------------------------------
    Charge (ESU x 10^10)
                -9.6064
    Dipole Moment (Debye)
         X      -1.7628      Y      15.9959      Z     -15.0773
       Tot      22.0523
    Quadrupole Moments (Debye-Ang)
        XX    -434.2420     XY      -6.8826     YY    -271.2135
        XZ      52.5940     YZ       7.8315     ZZ    -280.7322

 Total job time:  308884.39s(wall), 5506612.44s(cpu)
        *  Thank you very much for using Q-Chem.  Have a nice day.  *
