 Q-Chem 6.0, Q-Chem, Inc., Pleasanton, CA (2022)
 Q-Chem 6.0.2 for Intel X86 EM64T Linux

User input:
--------------------------------------------------------------
$molecule
-3 6
N   -2.4262102    2.5604723   -0.8388025
C   -4.3697264   -2.3336989   -0.1243507
H   -4.9163457   -2.9093987    0.6470413
N   -2.9499868   -2.3379094    0.2046549
H   -2.4124937   -2.8745561   -0.4769806
C   -4.5455961   -3.0993934   -1.4737688
O   -5.7154687   -3.1484993   -1.9280402
C   -2.4071864   -1.9391830    1.3721450
O   -3.0622167   -1.3505365    2.2496255
C   -2.0260630    3.5569212   -0.0511169
C   -2.8224130    4.8326616    0.0355603
H   -2.9682921    5.2877820   -0.9554896
H   -3.8154730    4.6506223    0.4749855
H   -2.2735848    5.5343202    0.6753001
C   -0.9430901   -2.2984130    1.5792450
H   -0.5813581   -2.9897818    0.8076472
H   -0.8907196   -2.8071863    2.5541622
C    0.0248566   -1.0904764    1.6136425
C   -0.4023025   -0.0945765    2.7302256
C    1.4595839   -1.5656434    1.9909156
H    1.4140664   -2.2467807    2.8538641
H    2.0406134   -0.6806518    2.2864484
C    2.1625088   -2.2635353    0.8394093
O    1.7302344   -3.3027351    0.3116678
N    3.2951585   -1.6595203    0.4289569
H    3.7112878   -0.9028188    0.9688634
C    5.5855270   -1.5076207   -0.4073526
O    6.4751314   -1.8720256   -1.2109804
N    2.3914871    2.0758288   -0.9324525
C    2.7142644    2.1492393    0.3542508
C    4.1437604    2.3318265    0.7774986
H    4.1514166    2.7719598    1.7833001
H    4.6598169    1.3558948    0.8110818
H    4.6994620    2.9843751    0.0899630
C    3.3172906    1.9925213   -2.0649954
H    2.7035038    2.2093245   -2.9495150
H    4.0716868    2.7879089   -1.9726642
C    3.9927289    0.6221881   -2.1631300
H    4.6786713    0.6320796   -3.0287325
H    4.6205966    0.4922398   -1.2721198
C    3.0007509   -0.5398420   -2.2649117
H    2.2018479   -0.3838117   -1.5239185
H    2.5126842   -0.5208691   -3.2557272
C    3.6132403   -1.9260634   -2.0320803
H    2.8324926   -2.6821713   -2.2133668
H    4.4345799   -2.1257699   -2.7395310
C    4.1798414   -2.1519367   -0.6100848
H    4.3115437   -3.2410287   -0.4841466
C   -4.6661962    1.4818041   -0.9598821
H   -4.7163975    1.7087111    0.1202045
H   -5.6686564    1.6954810   -1.3701588
C   -3.6718365    2.4648034   -1.5943758
H   -4.1047336    3.4700505   -1.6521166
H   -3.4091848    2.1495764   -2.6177236
C   -4.3069943    0.0039695   -1.1649159
H   -3.2225310   -0.1024074   -1.0432693
H   -4.5450688   -0.2942986   -2.2020456
C   -4.9985800   -0.9313343   -0.1757820
H   -4.9406598   -0.4949368    0.8330492
H   -6.0630384   -1.0627410   -0.4265266
O   -3.5035423   -3.6032774   -1.9812468
O    5.7053501   -0.6821135    0.5482107
O    0.0656825   -0.4509090    0.3732389
Fe   -0.0829581    1.4589670    0.3683627
O   -0.6582137    1.1066293    2.3136245
O   -1.6709869    1.4268675   -0.8297078
O   -0.9580370    3.4058589    0.6257068
O    1.0734615    1.8875961   -1.2350858
O   -0.4246347   -0.4524129    3.9146550
O    1.7841578    2.0491767    1.2237764
$end

$rem
BASIS  =  gen
CIS_N_ROOTS  =  100
CORRELATION  =  TPSS
EXCHANGE  =  TPSSH
GUI  =  2
JOB_TYPE  =  SP
SCF_CONVERGENCE  =  8
SOLVENT_METHOD  =  PCM
UNRESTRICTED  =  1
MEM_TOTAL  =  30000
$end

$pcm
THEORY  CPCM
$end

$solvent
DIELECTRIC  78.39
$end

$van_der_waals
26   2.44
$end

!----------------------------------------------------------------------
! Basis Set Exchange
! Basis set: aug-cc-pVDZ
!----------------------------------------------------------------------

$rem
BASIS GEN
PURECART 11
$end

$basis
H     0
S   4   1.00
1.301000D+01           1.968500D-02
1.962000D+00           1.379770D-01
4.446000D-01           4.781480D-01
1.220000D-01           5.012400D-01
S   1   1.00
1.220000D-01           1.000000D+00
S   1   1.00
0.0297400              1.0000000
P   1   1.00
7.270000D-01           1.0000000
P   1   1.00
0.1410000              1.0000000
****
C     0
S   9   1.00
6.665000D+03           6.920000D-04
1.000000D+03           5.329000D-03
2.280000D+02           2.707700D-02
6.471000D+01           1.017180D-01
2.106000D+01           2.747400D-01
7.495000D+00           4.485640D-01
2.797000D+00           2.850740D-01
5.215000D-01           1.520400D-02
1.596000D-01          -3.191000D-03
S   9   1.00
6.665000D+03          -1.460000D-04
1.000000D+03          -1.154000D-03
2.280000D+02          -5.725000D-03
6.471000D+01          -2.331200D-02
2.106000D+01          -6.395500D-02
7.495000D+00          -1.499810D-01
2.797000D+00          -1.272620D-01
5.215000D-01           5.445290D-01
1.596000D-01           5.804960D-01
S   1   1.00
1.596000D-01           1.000000D+00
S   1   1.00
0.0469000              1.0000000
P   4   1.00
9.439000D+00           3.810900D-02
2.002000D+00           2.094800D-01
5.456000D-01           5.085570D-01
1.517000D-01           4.688420D-01
P   1   1.00
1.517000D-01           1.000000D+00
P   1   1.00
0.0404100              1.0000000
D   1   1.00
5.500000D-01           1.0000000
D   1   1.00
0.1510000              1.0000000
****
N     0
S   9   1.00
9.046000D+03           7.000000D-04
1.357000D+03           5.389000D-03
3.093000D+02           2.740600D-02
8.773000D+01           1.032070D-01
2.856000D+01           2.787230D-01
1.021000D+01           4.485400D-01
3.838000D+00           2.782380D-01
7.466000D-01           1.544000D-02
2.248000D-01          -2.864000D-03
S   9   1.00
9.046000D+03          -1.530000D-04
1.357000D+03          -1.208000D-03
3.093000D+02          -5.992000D-03
8.773000D+01          -2.454400D-02
2.856000D+01          -6.745900D-02
1.021000D+01          -1.580780D-01
3.838000D+00          -1.218310D-01
7.466000D-01           5.490030D-01
2.248000D-01           5.788150D-01
S   1   1.00
2.248000D-01           1.000000D+00
S   1   1.00
0.0612400              1.0000000
P   4   1.00
1.355000D+01           3.991900D-02
2.917000D+00           2.171690D-01
7.973000D-01           5.103190D-01
2.185000D-01           4.622140D-01
P   1   1.00
2.185000D-01           1.000000D+00
P   1   1.00
0.0561100              1.0000000
D   1   1.00
8.170000D-01           1.0000000
D   1   1.00
0.2300000              1.0000000
****
O     0
S   9   1.00
1.172000D+04           7.100000D-04
1.759000D+03           5.470000D-03
4.008000D+02           2.783700D-02
1.137000D+02           1.048000D-01
3.703000D+01           2.830620D-01
1.327000D+01           4.487190D-01
5.025000D+00           2.709520D-01
1.013000D+00           1.545800D-02
3.023000D-01          -2.585000D-03
S   9   1.00
1.172000D+04          -1.600000D-04
1.759000D+03          -1.263000D-03
4.008000D+02          -6.267000D-03
1.137000D+02          -2.571600D-02
3.703000D+01          -7.092400D-02
1.327000D+01          -1.654110D-01
5.025000D+00          -1.169550D-01
1.013000D+00           5.573680D-01
3.023000D-01           5.727590D-01
S   1   1.00
3.023000D-01           1.000000D+00
S   1   1.00
0.0789600              1.0000000
P   4   1.00
1.770000D+01           4.301800D-02
3.854000D+00           2.289130D-01
1.046000D+00           5.087280D-01
2.753000D-01           4.605310D-01
P   1   1.00
2.753000D-01           1.000000D+00
P   1   1.00
0.0685600              1.0000000
D   1   1.00
1.185000D+00           1.0000000
D   1   1.00
0.3320000              1.0000000
****
Fe     0
S   20   1.00
4.316265D+06           8.048803D-06
6.463424D+05           6.258306D-05
1.470897D+05           3.290239D-04
4.166152D+04           1.387355D-03
1.359077D+04           5.023256D-03
4.905750D+03           1.610140D-02
1.912746D+03           4.590034D-02
7.926043D+02           1.136154D-01
3.448065D+02           2.283869D-01
1.558999D+02           3.221159D-01
7.223091D+01           2.383661D-01
3.272506D+01           7.404667D-02
1.566762D+01           9.214197D-02
7.503483D+00           9.339790D-02
3.312223D+00           1.573965D-02
1.558471D+00          -4.186682D-04
6.839140D-01           5.376318D-05
1.467570D-01          -3.816654D-05
7.058300D-02           4.319603D-05
3.144900D-02          -3.401019D-06
S   20   1.00
4.316265D+06          -4.155954D-06
6.463424D+05          -3.231401D-05
1.470897D+05          -1.699525D-04
4.166152D+04          -7.171369D-04
1.359077D+04          -2.603625D-03
4.905750D+03          -8.399109D-03
1.912746D+03          -2.434109D-02
7.926043D+02          -6.251948D-02
3.448065D+02          -1.365929D-01
1.558999D+02          -2.312707D-01
7.223091D+01          -2.383734D-01
3.272506D+01           3.123837D-02
1.566762D+01           5.086818D-01
7.503483D+00           4.987695D-01
3.312223D+00           9.033552D-02
1.558471D+00          -6.005337D-03
6.839140D-01           2.312454D-04
1.467570D-01          -5.643680D-04
7.058300D-02           4.992260D-04
3.144900D-02          -1.015293D-04
S   20   1.00
4.316265D+06           9.532178D-07
6.463424D+05           7.414605D-06
1.470897D+05           3.898393D-05
4.166152D+04           1.647152D-04
1.359077D+04           5.985980D-04
4.905750D+03           1.942390D-03
1.912746D+03           5.687237D-03
7.926043D+02           1.501329D-02
3.448065D+02           3.452455D-02
1.558999D+02           6.495820D-02
7.223091D+01           7.716194D-02
3.272506D+01          -1.873411D-02
1.566762D+01          -3.009185D-01

             Standard Nuclear Orientation (Angstroms)
    I     Atom           X                Y                Z
 ----------------------------------------------------------------
    1      N      -2.4262102000     2.5604723000    -0.8388025000
    2      C      -4.3697264000    -2.3336989000    -0.1243507000
    3      H      -4.9163457000    -2.9093987000     0.6470413000
    4      N      -2.9499868000    -2.3379094000     0.2046549000
    5      H      -2.4124937000    -2.8745561000    -0.4769806000
    6      C      -4.5455961000    -3.0993934000    -1.4737688000
    7      O      -5.7154687000    -3.1484993000    -1.9280402000
    8      C      -2.4071864000    -1.9391830000     1.3721450000
    9      O      -3.0622167000    -1.3505365000     2.2496255000
   10      C      -2.0260630000     3.5569212000    -0.0511169000
   11      C      -2.8224130000     4.8326616000     0.0355603000
   12      H      -2.9682921000     5.2877820000    -0.9554896000
   13      H      -3.8154730000     4.6506223000     0.4749855000
   14      H      -2.2735848000     5.5343202000     0.6753001000
   15      C      -0.9430901000    -2.2984130000     1.5792450000
   16      H      -0.5813581000    -2.9897818000     0.8076472000
   17      H      -0.8907196000    -2.8071863000     2.5541622000
   18      C       0.0248566000    -1.0904764000     1.6136425000
   19      C      -0.4023025000    -0.0945765000     2.7302256000
   20      C       1.4595839000    -1.5656434000     1.9909156000
   21      H       1.4140664000    -2.2467807000     2.8538641000
   22      H       2.0406134000    -0.6806518000     2.2864484000
   23      C       2.1625088000    -2.2635353000     0.8394093000
   24      O       1.7302344000    -3.3027351000     0.3116678000
   25      N       3.2951585000    -1.6595203000     0.4289569000
   26      H       3.7112878000    -0.9028188000     0.9688634000
   27      C       5.5855270000    -1.5076207000    -0.4073526000
   28      O       6.4751314000    -1.8720256000    -1.2109804000
   29      N       2.3914871000     2.0758288000    -0.9324525000
   30      C       2.7142644000     2.1492393000     0.3542508000
   31      C       4.1437604000     2.3318265000     0.7774986000
   32      H       4.1514166000     2.7719598000     1.7833001000
   33      H       4.6598169000     1.3558948000     0.8110818000
   34      H       4.6994620000     2.9843751000     0.0899630000
   35      C       3.3172906000     1.9925213000    -2.0649954000
   36      H       2.7035038000     2.2093245000    -2.9495150000
   37      H       4.0716868000     2.7879089000    -1.9726642000
   38      C       3.9927289000     0.6221881000    -2.1631300000
   39      H       4.6786713000     0.6320796000    -3.0287325000
   40      H       4.6205966000     0.4922398000    -1.2721198000
   41      C       3.0007509000    -0.5398420000    -2.2649117000
   42      H       2.2018479000    -0.3838117000    -1.5239185000
   43      H       2.5126842000    -0.5208691000    -3.2557272000
   44      C       3.6132403000    -1.9260634000    -2.0320803000
   45      H       2.8324926000    -2.6821713000    -2.2133668000
   46      H       4.4345799000    -2.1257699000    -2.7395310000
   47      C       4.1798414000    -2.1519367000    -0.6100848000
   48      H       4.3115437000    -3.2410287000    -0.4841466000
   49      C      -4.6661962000     1.4818041000    -0.9598821000
   50      H      -4.7163975000     1.7087111000     0.1202045000
   51      H      -5.6686564000     1.6954810000    -1.3701588000
   52      C      -3.6718365000     2.4648034000    -1.5943758000
   53      H      -4.1047336000     3.4700505000    -1.6521166000
   54      H      -3.4091848000     2.1495764000    -2.6177236000
   55      C      -4.3069943000     0.0039695000    -1.1649159000
   56      H      -3.2225310000    -0.1024074000    -1.0432693000
   57      H      -4.5450688000    -0.2942986000    -2.2020456000
   58      C      -4.9985800000    -0.9313343000    -0.1757820000
   59      H      -4.9406598000    -0.4949368000     0.8330492000
   60      H      -6.0630384000    -1.0627410000    -0.4265266000
   61      O      -3.5035423000    -3.6032774000    -1.9812468000
   62      O       5.7053501000    -0.6821135000     0.5482107000
   63      O       0.0656825000    -0.4509090000     0.3732389000
   64      Fe     -0.0829581000     1.4589670000     0.3683627000
   65      O      -0.6582137000     1.1066293000     2.3136245000
   66      O      -1.6709869000     1.4268675000    -0.8297078000
   67      O      -0.9580370000     3.4058589000     0.6257068000
   68      O       1.0734615000     1.8875961000    -1.2350858000
   69      O      -0.4246347000    -0.4524129000     3.9146550000
   70      O       1.7841578000     2.0491767000     1.2237764000
 ----------------------------------------------------------------

   22   -3318.0725997596      6.04e-09  Convergence criterion met
 Total energy in the final basis set =    -3318.0725997596

         TDDFT/TDA Excitation Energies
 ---------------------------------------------------

 Excited state   1: excitation energy (eV) =    1.9499
 Total energy for state  1:                 -3318.00094353 au
    <S**2>     :  8.7840
    Trans. Mom.: -0.0397 X   0.0291 Y  -0.0278 Z
    Strength   :     0.0001528120
    D(  159) --> S(    1) amplitude =  0.9832 beta

 Excited state   2: excitation energy (eV) =    2.1619
 Total energy for state  2:                 -3317.99315126 au
    <S**2>     :  8.7808
    Trans. Mom.: -0.1885 X   0.0821 Y  -0.0428 Z
    Strength   :     0.0023352345
    D(  158) --> S(    1) amplitude =  0.9572 beta

 Excited state   3: excitation energy (eV) =    2.2271
 Total energy for state  3:                 -3317.99075375 au
    <S**2>     :  8.7768
    Trans. Mom.:  0.7026 X  -0.0645 Y   0.0322 Z
    Strength   :     0.0272175268
    D(  159) --> S(    2) amplitude =  0.9569 beta
    D(  159) --> S(    3) amplitude =  0.2018 beta

 Excited state   4: excitation energy (eV) =    2.3342
 Total energy for state  4:                 -3317.98681790 au
    <S**2>     :  8.7821
    Trans. Mom.: -0.3238 X  -0.1607 Y   0.0726 Z
    Strength   :     0.0077738245
    D(  158) --> S(    2) amplitude = -0.4252 beta
    D(  159) --> S(    2) amplitude = -0.1913 beta
    D(  159) --> S(    3) amplitude =  0.8566 beta

 Excited state   5: excitation energy (eV) =    2.5357
 Total energy for state  5:                 -3317.97941453 au
    <S**2>     :  8.7768
    Trans. Mom.:  0.6017 X  -0.1039 Y  -0.0011 Z
    Strength   :     0.0231595605
    D(  157) --> S(    3) amplitude = -0.1586 beta
    D(  158) --> S(    3) amplitude =  0.9572 beta

 Excited state   6: excitation energy (eV) =    2.6032
 Total energy for state  6:                 -3317.97693269 au
    <S**2>     :  8.7756
    Trans. Mom.:  0.1387 X  -0.7120 Y   0.4820 Z
    Strength   :     0.0483809688
    D(  157) --> S(    1) amplitude =  0.2707 beta
    D(  158) --> S(    2) amplitude =  0.7861 beta
    D(  159) --> S(    3) amplitude =  0.4250 beta

 Excited state   7: excitation energy (eV) =    2.6610
 Total energy for state  7:                 -3317.97480891 au
    <S**2>     :  8.7809
    Trans. Mom.: -0.0954 X   0.2268 Y  -0.1198 Z
    Strength   :     0.0048805025
    D(  154) --> S(    1) amplitude = -0.3467 beta
    D(  155) --> S(    1) amplitude = -0.2709 beta
    D(  157) --> S(    1) amplitude =  0.7708 beta
    D(  158) --> S(    1) amplitude =  0.1867 beta
    D(  158) --> S(    2) amplitude = -0.2734 beta

 Excited state   8: excitation energy (eV) =    2.8546
 Total energy for state  8:                 -3317.96769403 au
    <S**2>     :  8.7791
    Trans. Mom.: -0.1058 X  -0.2005 Y   0.0854 Z
    Strength   :     0.0041043858
    D(  154) --> S(    1) amplitude =  0.6782 beta
    D(  154) --> S(    2) amplitude =  0.2341 beta
    D(  155) --> S(    1) amplitude = -0.2881 beta
    D(  156) --> S(    1) amplitude =  0.2835 beta
    D(  157) --> S(    1) amplitude =  0.1968 beta
    D(  157) --> S(    2) amplitude = -0.3487 beta
    D(  157) --> S(    3) amplitude =  0.2268 beta

 Excited state   9: excitation energy (eV) =    2.9125
 Total energy for state  9:                 -3317.96556872 au
    <S**2>     :  8.7742
    Trans. Mom.: -0.0848 X  -0.0784 Y   0.0949 Z
    Strength   :     0.0015944047
    D(  154) --> S(    1) amplitude =  0.2362 beta
    D(  154) --> S(    3) amplitude = -0.2850 beta
    D(  155) --> S(    2) amplitude = -0.3175 beta
    D(  156) --> S(    2) amplitude =  0.1596 beta
    D(  157) --> S(    2) amplitude =  0.6980 beta
    D(  157) --> S(    3) amplitude =  0.3654 beta

 Excited state  10: excitation energy (eV) =    3.0405
 Total energy for state 10:                 -3317.96086489 au
    <S**2>     :  8.7715
    Trans. Mom.: -0.1719 X   0.1857 Y  -0.1246 Z
    Strength   :     0.0059285464
    D(  152) --> S(    2) amplitude =  0.1518 beta
    D(  154) --> S(    1) amplitude = -0.2791 beta
    D(  154) --> S(    2) amplitude =  0.7752 beta
    D(  155) --> S(    2) amplitude = -0.2006 beta
    D(  156) --> S(    2) amplitude =  0.2538 beta
    D(  157) --> S(    3) amplitude =  0.2135 beta

 Excited state  11: excitation energy (eV) =    3.0946
 Total energy for state 11:                 -3317.95887442 au
    <S**2>     :  8.7756
    Trans. Mom.:  0.0512 X   0.1292 Y  -0.1220 Z
    Strength   :     0.0025926550
    D(  154) --> S(    1) amplitude = -0.1799 beta
    D(  154) --> S(    2) amplitude = -0.3212 beta
    D(  154) --> S(    3) amplitude =  0.3309 beta
    D(  155) --> S(    2) amplitude =  0.1530 beta
    D(  155) --> S(    3) amplitude = -0.3745 beta
    D(  156) --> S(    3) amplitude =  0.2556 beta
    D(  157) --> S(    3) amplitude =  0.6243 beta

 Excited state  12: excitation energy (eV) =    3.1707
 Total energy for state 12:                 -3317.95607789 au
    <S**2>     :  8.7834
    Trans. Mom.:  0.0482 X  -0.0435 Y   0.0020 Z
    Strength   :     0.0003273575
    D(  150) --> S(    1) amplitude = -0.1573 beta
    D(  151) --> S(    1) amplitude = -0.2052 beta
    D(  154) --> S(    1) amplitude =  0.3184 beta
    D(  155) --> S(    1) amplitude =  0.6565 beta
    D(  156) --> S(    1) amplitude = -0.3662 beta
    D(  157) --> S(    1) amplitude =  0.4883 beta

 Excited state  13: excitation energy (eV) =    3.2152
 Total energy for state 13:                 -3317.95444285 au
    <S**2>     :  8.7836
    Trans. Mom.:  0.0143 X  -0.0013 Y  -0.0159 Z
    Strength   :     0.0000362579
    D(  155) --> S(    1) amplitude =  0.5260 beta
    D(  156) --> S(    1) amplitude =  0.8348 beta

 Excited state  14: excitation energy (eV) =    3.2163
 Total energy for state 14:                 -3317.95440431 au
    <S**2>     :  8.8002
    Trans. Mom.: -0.2310 X   0.0592 Y   0.0433 Z
    Strength   :     0.0046271912
    D(  158) --> S(    4) amplitude =  0.1599 beta
    D(  159) --> S(    4) amplitude =  0.9672 beta

 Excited state  15: excitation energy (eV) =    3.3249
 Total energy for state 15:                 -3317.95041065 au
    <S**2>     :  8.7765
    Trans. Mom.:  0.0382 X  -0.3716 Y   0.0351 Z
    Strength   :     0.0114658337
    D(  154) --> S(    2) amplitude =  0.1695 beta
    D(  154) --> S(    3) amplitude =  0.5608 beta
    D(  155) --> S(    3) amplitude = -0.1599 beta
    D(  156) --> S(    3) amplitude =  0.2173 beta
    D(  157) --> S(    2) amplitude =  0.4109 beta
    D(  157) --> S(    3) amplitude = -0.3021 beta
    D(  158) --> S(    4) amplitude = -0.2724 beta

 Excited state  16: excitation energy (eV) =    3.3853
 Total energy for state 16:                 -3317.94819064 au
    <S**2>     :  8.7794
    Trans. Mom.: -0.0311 X   0.1174 Y   0.0127 Z
    Strength   :     0.0012368598
    D(  151) --> S(    2) amplitude = -0.1694 beta
    D(  153) --> S(    1) amplitude = -0.1527 beta
    D(  154) --> S(    2) amplitude =  0.2981 beta
    D(  155) --> S(    2) amplitude =  0.6260 beta
    D(  156) --> S(    2) amplitude = -0.3045 beta
    D(  157) --> S(    2) amplitude =  0.3673 beta
    D(  158) --> S(    4) amplitude =  0.3674 beta

 Excited state  17: excitation energy (eV) =    3.3988
 Total energy for state 17:                 -3317.94769739 au
    <S**2>     :  8.7834
    Trans. Mom.: -0.0230 X   0.1003 Y  -0.0270 Z
    Strength   :     0.0009428250
    D(  150) --> S(    1) amplitude = -0.2142 beta
    D(  151) --> S(    1) amplitude = -0.3812 beta
    D(  153) --> S(    1) amplitude =  0.8031 beta
    D(  155) --> S(    1) amplitude = -0.2035 beta
    D(  158) --> S(    4) amplitude =  0.1705 beta

 Excited state  18: excitation energy (eV) =    3.4038
 Total energy for state 18:                 -3317.94751376 au
    <S**2>     :  8.7885
    Trans. Mom.: -0.1503 X  -0.0571 Y  -0.0127 Z
    Strength   :     0.0021693418
    D(  154) --> S(    3) amplitude =  0.2030 beta
    D(  155) --> S(    2) amplitude = -0.2366 beta
    D(  156) --> S(    2) amplitude =  0.2167 beta
    D(  158) --> S(    4) amplitude =  0.7261 beta
    D(  159) --> S(    5) amplitude =  0.4432 beta

 Excited state  19: excitation energy (eV) =    3.4199
 Total energy for state 19:                 -3317.94692077 au
    <S**2>     :  8.7754
    Trans. Mom.:  0.0329 X  -0.0238 Y  -0.0040 Z
    Strength   :     0.0001393322
    D(  155) --> S(    2) amplitude =  0.5169 beta
    D(  156) --> S(    2) amplitude =  0.8368 beta

 Excited state  20: excitation energy (eV) =    3.4476
 Total energy for state 20:                 -3317.94590219 au
    <S**2>     :  8.7831
    Trans. Mom.: -0.0079 X  -0.0342 Y   0.0254 Z
    Strength   :     0.0001588364
    D(  151) --> S(    1) amplitude = -0.1965 beta
    D(  152) --> S(    1) amplitude =  0.9554 beta
    D(  154) --> S(    1) amplitude = -0.1940 beta

 Excited state  21: excitation energy (eV) =    3.4635
 Total energy for state 21:                 -3317.94531980 au
    <S**2>     :  8.7838
    Trans. Mom.: -0.0647 X   0.0275 Y   0.0233 Z
    Strength   :     0.0004654412
    D(  150) --> S(    1) amplitude =  0.2632 beta
    D(  151) --> S(    1) amplitude =  0.5568 beta
    D(  153) --> S(    1) amplitude =  0.4171 beta
    D(  158) --> S(    4) amplitude = -0.2503 beta
    D(  159) --> S(    5) amplitude =  0.5436 beta

 Excited state  22: excitation energy (eV) =    3.4659
 Total energy for state 22:                 -3317.94522871 au
    <S**2>     :  8.7818
    Trans. Mom.: -0.1481 X   0.0835 Y   0.0263 Z
    Strength   :     0.0025115922
    D(  151) --> S(    1) amplitude = -0.4587 beta
    D(  153) --> S(    1) amplitude = -0.3257 beta
    D(  158) --> S(    4) amplitude = -0.2583 beta
    D(  159) --> S(    5) amplitude =  0.6794 beta

 Excited state  23: excitation energy (eV) =    3.4987
 Total energy for state 23:                 -3317.94402485 au
    <S**2>     :  8.7829
    Trans. Mom.: -0.0145 X  -0.0729 Y   0.0015 Z
    Strength   :     0.0004736689
    D(  150) --> S(    1) amplitude =  0.8375 beta
    D(  151) --> S(    1) amplitude = -0.4419 beta

 Excited state  24: excitation energy (eV) =    3.5310
 Total energy for state 24:                 -3317.94283849 au
    <S**2>     :  8.7774
    Trans. Mom.:  0.0169 X  -0.1744 Y   0.0508 Z
    Strength   :     0.0028778261
    D(  150) --> S(    1) amplitude =  0.1692 beta
    D(  151) --> S(    3) amplitude = -0.1826 beta
    D(  154) --> S(    3) amplitude =  0.4089 beta
    D(  155) --> S(    3) amplitude =  0.6827 beta
    D(  156) --> S(    3) amplitude = -0.1933 beta
    D(  157) --> S(    3) amplitude =  0.3921 beta

 Excited state  25: excitation energy (eV) =    3.5608
 Total energy for state 25:                 -3317.94174433 au
    <S**2>     :  8.7769
    Trans. Mom.: -0.0228 X   0.0426 Y  -0.0057 Z
    Strength   :     0.0002062848
    D(  154) --> S(    3) amplitude = -0.1840 beta
    D(  155) --> S(    3) amplitude =  0.4379 beta
    D(  156) --> S(    3) amplitude =  0.8648 beta

 Excited state  26: excitation energy (eV) =    3.6025
 Total energy for state 26:                 -3317.94021129 au
    <S**2>     :  8.7756
    Trans. Mom.: -0.0198 X   0.0139 Y   0.0574 Z
    Strength   :     0.0003425613
    D(  150) --> S(    2) amplitude = -0.2403 beta
    D(  151) --> S(    2) amplitude = -0.3902 beta
    D(  153) --> S(    2) amplitude =  0.8132 beta
    D(  155) --> S(    2) amplitude = -0.2108 beta
    D(  156) --> S(    2) amplitude =  0.1506 beta

 Excited state  27: excitation energy (eV) =    3.6371
 Total energy for state 27:                 -3317.93894024 au
    <S**2>     :  8.7831
    Trans. Mom.:  0.0216 X  -0.0172 Y   0.0561 Z
    Strength   :     0.0003483532
    D(  145) --> S(    1) amplitude =  0.3124 beta
    D(  148) --> S(    1) amplitude = -0.6403 beta
    D(  149) --> S(    1) amplitude =  0.6459 beta

 Excited state  28: excitation energy (eV) =    3.6525
 Total energy for state 28:                 -3317.93837111 au
    <S**2>     :  8.7758
    Trans. Mom.:  0.0437 X   0.0164 Y  -0.0204 Z
    Strength   :     0.0002322120
    D(  151) --> S(    2) amplitude = -0.1694 beta
    D(  152) --> S(    2) amplitude =  0.9411 beta
    D(  154) --> S(    2) amplitude = -0.1972 beta
    D(  158) --> S(    5) amplitude =  0.1791 beta

 Excited state  29: excitation energy (eV) =    3.6545
 Total energy for state 29:                 -3317.93829989 au
    <S**2>     :  8.7873
    Trans. Mom.:  0.0883 X   0.0212 Y  -0.0677 Z
    Strength   :     0.0011490407
    D(  148) --> S(    1) amplitude = -0.1823 beta
    D(  149) --> S(    1) amplitude = -0.4456 beta
    D(  151) --> S(    2) amplitude =  0.1518 beta
    D(  152) --> S(    2) amplitude = -0.1569 beta
    D(  153) --> S(    2) amplitude =  0.2758 beta
    D(  158) --> S(    5) amplitude =  0.7357 beta

 Excited state  30: excitation energy (eV) =    3.6652
 Total energy for state 30:                 -3317.93790605 au
    <S**2>     :  8.7868
    Trans. Mom.:  0.1469 X  -0.0311 Y  -0.1095 Z
    Strength   :     0.0031017576
    D(  145) --> S(    1) amplitude = -0.2339 beta
    D(  148) --> S(    1) amplitude =  0.5212 beta
    D(  149) --> S(    1) amplitude =  0.5915 beta
    D(  151) --> S(    2) amplitude =  0.2191 beta
    D(  153) --> S(    2) amplitude =  0.1742 beta
    D(  158) --> S(    5) amplitude =  0.3850 beta

 Excited state  31: excitation energy (eV) =    3.6716
 Total energy for state 31:                 -3317.93766964 au
    <S**2>     :  8.7775
    Trans. Mom.: -0.0751 X  -0.0109 Y   0.0071 Z
    Strength   :     0.0005228900
    D(  150) --> S(    2) amplitude =  0.2550 beta
    D(  151) --> S(    2) amplitude =  0.7026 beta
    D(  152) --> S(    2) amplitude =  0.1912 beta
    D(  153) --> S(    2) amplitude =  0.4276 beta
    D(  154) --> S(    2) amplitude =  0.1512 beta
    D(  158) --> S(    5) amplitude = -0.3706 beta

 Excited state  32: excitation energy (eV) =    3.7063
 Total energy for state 32:                 -3317.93639713 au
    <S**2>     :  8.7749
    Trans. Mom.:  0.0147 X   0.0186 Y  -0.0227 Z
    Strength   :     0.0000981870
    D(  150) --> S(    2) amplitude =  0.8626 beta
    D(  151) --> S(    2) amplitude = -0.4212 beta

 Excited state  33: excitation energy (eV) =    3.7401
 Total energy for state 33:                 -3317.93515391 au
    <S**2>     :  8.7767
    Trans. Mom.: -0.0093 X  -0.0283 Y   0.0127 Z
    Strength   :     0.0000961260
    D(  150) --> S(    3) amplitude = -0.2435 beta
    D(  151) --> S(    3) amplitude = -0.3938 beta
    D(  153) --> S(    3) amplitude =  0.8176 beta
    D(  155) --> S(    3) amplitude = -0.2304 beta
    D(  156) --> S(    3) amplitude =  0.1717 beta

 Excited state  34: excitation energy (eV) =    3.7947
 Total energy for state 34:                 -3317.93314737 au
    <S**2>     :  8.7766
    Trans. Mom.:  0.0204 X  -0.0047 Y  -0.0003 Z
    Strength   :     0.0000407016
    D(  151) --> S(    3) amplitude = -0.2164 beta
    D(  152) --> S(    3) amplitude =  0.9508 beta
    D(  154) --> S(    3) amplitude = -0.1992 beta

 Excited state  35: excitation energy (eV) =    3.8096
 Total energy for state 35:                 -3317.93259808 au
    <S**2>     :  8.7780
    Trans. Mom.:  0.0065 X   0.0255 Y   0.0040 Z
    Strength   :     0.0000663152
    D(  150) --> S(    3) amplitude =  0.3046 beta
    D(  151) --> S(    3) amplitude =  0.7187 beta
    D(  152) --> S(    3) amplitude =  0.1879 beta
    D(  153) --> S(    3) amplitude =  0.5285 beta

 Excited state  36: excitation energy (eV) =    3.8385
 Total energy for state 36:                 -3317.93153733 au
    <S**2>     :  8.7761
    Trans. Mom.: -0.0856 X   0.0302 Y   0.0146 Z
    Strength   :     0.0007946661
    D(  145) --> S(    2) amplitude = -0.3674 beta
    D(  148) --> S(    2) amplitude =  0.6935 beta
    D(  149) --> S(    2) amplitude = -0.5220 beta
    D(  150) --> S(    2) amplitude = -0.1790 beta

 Excited state  37: excitation energy (eV) =    3.8438
 Total energy for state 37:                 -3317.93134178 au
    <S**2>     :  8.7791
    Trans. Mom.: -0.0523 X   0.0036 Y   0.0464 Z
    Strength   :     0.0004607376
    D(  145) --> S(    1) amplitude =  0.2747 beta
    D(  148) --> S(    1) amplitude =  0.1582 beta
    D(  150) --> S(    3) amplitude =  0.7857 beta
    D(  151) --> S(    3) amplitude = -0.4432 beta
    D(  152) --> S(    3) amplitude = -0.1552 beta

 Excited state  38: excitation energy (eV) =    3.8523
 Total energy for state 38:                 -3317.93103110 au
    <S**2>     :  8.7866
    Trans. Mom.: -0.0868 X  -0.0762 Y   0.1807 Z
    Strength   :     0.0043420875
    D(  145) --> S(    1) amplitude =  0.7550 beta
    D(  146) --> S(    1) amplitude = -0.1878 beta
    D(  148) --> S(    1) amplitude =  0.4044 beta
    D(  149) --> S(    2) amplitude =  0.2313 beta
    D(  150) --> S(    3) amplitude = -0.3238 beta

 Excited state  39: excitation energy (eV) =    3.8634
 Total energy for state 39:                 -3317.93062362 au
    <S**2>     :  8.7792
    Trans. Mom.:  0.0134 X  -0.0298 Y  -0.0671 Z
    Strength   :     0.0005266246
    D(  145) --> S(    2) amplitude = -0.2565 beta
    D(  148) --> S(    2) amplitude =  0.4353 beta
    D(  149) --> S(    2) amplitude =  0.8041 beta

 Excited state  40: excitation energy (eV) =    3.9232

 Excited state 100: excitation energy (eV) =    4.8938

                    Orbital Energies (a.u.)
 --------------------------------------------------------------

 Alpha MOs
 -- Occupied --
******** -29.9576 -25.7886 -25.7858 -25.7842 -19.0576 -19.0541 -19.0530
-19.0509 -19.0370 -19.0275 -19.0249 -19.0224 -19.0160 -19.0140 -19.0140
-19.0111 -19.0092 -14.3365 -14.3337 -14.2670 -14.2659 -10.2131 -10.2094
-10.2066 -10.2046 -10.2045 -10.1995 -10.1984 -10.1651 -10.1561 -10.1537
-10.1445 -10.1444 -10.1265 -10.1199 -10.1146 -10.1145 -10.1105 -10.1098
-10.1082 -10.1038 -10.1036 -10.0986  -3.5427  -2.3200  -2.3140  -2.3108
 -1.0541  -1.0486  -1.0163  -1.0027  -1.0013  -0.9954  -0.9932  -0.9828
 -0.9784  -0.9398  -0.9230  -0.9155  -0.9147  -0.8854  -0.8822  -0.8299
 -0.8264  -0.7698  -0.7682  -0.7463  -0.7332  -0.7236  -0.7050  -0.6989
 -0.6883  -0.6667  -0.6557  -0.6187  -0.6088  -0.5887  -0.5678  -0.5640
 -0.5351  -0.5316  -0.5259  -0.5143  -0.5086  -0.5013  -0.4907  -0.4837
 -0.4812  -0.4754  -0.4722  -0.4635  -0.4563  -0.4504  -0.4493  -0.4471
 -0.4437  -0.4373  -0.4300  -0.4265  -0.4235  -0.4182  -0.4121  -0.4117
 -0.4068  -0.4037  -0.3985  -0.3962  -0.3923  -0.3904  -0.3873  -0.3853
 -0.3843  -0.3810  -0.3792  -0.3779  -0.3742  -0.3712  -0.3691  -0.3678
 -0.3622  -0.3591  -0.3572  -0.3539  -0.3527  -0.3519  -0.3490  -0.3429
 -0.3416  -0.3396  -0.3369  -0.3344  -0.3299  -0.3231  -0.3150  -0.3079
 -0.3069  -0.3054  -0.3036  -0.3022  -0.2967  -0.2942  -0.2911  -0.2816
 -0.2663  -0.2653  -0.2556  -0.2459  -0.2405  -0.2399  -0.2358  -0.2290
 -0.2282  -0.2239  -0.2215  -0.2202  -0.2185  -0.2125  -0.2114  -0.2080
 -0.2028  -0.1923  -0.1858  -0.1787

 Beta MOs
 -- Occupied --
******** -29.8762 -25.7191 -25.7178 -25.7167 -19.0521 -19.0503 -19.0492
-19.0480 -19.0338 -19.0275 -19.0249 -19.0218 -19.0140 -19.0140 -19.0111
-19.0092 -19.0091 -14.3362 -14.3335 -14.2670 -14.2659 -10.2131 -10.2093
-10.2066 -10.2045 -10.2045 -10.1995 -10.1984 -10.1651 -10.1560 -10.1536
-10.1445 -10.1444 -10.1264 -10.1198 -10.1146 -10.1143 -10.1105 -10.1097
-10.1082 -10.1038 -10.1036 -10.0986  -3.3396  -2.1070  -2.1053  -2.1034
 -1.0493  -1.0443  -1.0134  -1.0027  -1.0013  -0.9954  -0.9931  -0.9773
 -0.9729  -0.9324  -0.9155  -0.9148  -0.9146  -0.8854  -0.8821  -0.8253
 -0.8220  -0.7694  -0.7678  -0.7443  -0.7329  -0.7227  -0.7041  -0.6978
 -0.6876  -0.6662  -0.6553  -0.6182  -0.6084  -0.5873  -0.5672  -0.5633
 -0.5348  -0.5311  -0.5220  -0.5105  -0.5069  -0.5004  -0.4858  -0.4789
 -0.4751  -0.4724  -0.4689  -0.4581  -0.4546  -0.4487  -0.4474  -0.4459
 -0.4422  -0.4342  -0.4288  -0.4257  -0.4214  -0.4173  -0.4093  -0.4085
 -0.4044  -0.4014  -0.3950  -0.3925  -0.3907  -0.3856  -0.3838  -0.3827
 -0.3807  -0.3783  -0.3768  -0.3764  -0.3704  -0.3675  -0.3667  -0.3651
 -0.3597  -0.3526  -0.3509  -0.3501  -0.3468  -0.3430  -0.3395  -0.3338
 -0.3243  -0.3228  -0.3107  -0.3074  -0.3062  -0.3053  -0.3020  -0.2977
 -0.2942  -0.2908  -0.2800  -0.2753  -0.2672  -0.2648  -0.2579  -0.2560
 -0.2466  -0.2404  -0.2399  -0.2330  -0.2290  -0.2249  -0.2232  -0.2203
 -0.2199  -0.2170  -0.2120  -0.2114  -0.2066  -0.1908  -0.1800

          Ground-State Mulliken Net Atomic Charges

     Atom                 Charge (a.u.)    Spin (a.u.)
  --------------------------------------------------------
      1 N                     0.631920       0.008586
      2 C                     0.637302      -0.000870
      3 H                    -0.343308      -0.000045
      4 N                     0.159219      -0.002369
      5 H                    -0.013306       0.000121
      6 C                     1.109323      -0.000028
      7 O                    -0.896070       0.000004
      8 C                     0.352991       0.004378
      9 O                    -0.873603       0.000134
     10 C                    -0.576919      -0.031708
     11 C                     0.788438       0.003219
     12 H                     0.040546      -0.000270
     13 H                     0.028006      -0.000155
     14 H                    -0.390658       0.000328
     15 C                     1.045936       0.003949
     16 H                    -0.372038       0.001735
     17 H                    -0.231118       0.001820
     18 C                    -0.560910       0.030959
     19 C                     1.015247      -0.005086
     20 C                     0.893419       0.004590
     21 H                    -0.291379       0.002012
     22 H                    -0.576341       0.001489
     23 C                     0.449304       0.005837
     24 O                    -0.895793      -0.000087
     25 N                     0.300661      -0.002863
     26 H                     0.101535       0.000491
     27 C                     1.065543       0.000015
     28 O                    -0.945463       0.000036
     29 N                     0.712722       0.021051
     30 C                    -0.605672      -0.013283
     31 C                     1.356243       0.001953
     32 H                    -0.310295       0.000591
     33 H                    -0.218940       0.000360
     34 H                    -0.078516      -0.000249
     35 C                     0.713895       0.000318
     36 H                    -0.502134       0.000577
     37 H                    -0.363849       0.001219
     38 C                     1.002219       0.000235
     39 H                    -0.282767       0.000488
     40 H                    -0.666515      -0.000811
     41 C                     0.942032      -0.003347
     42 H                    -0.519300       0.007443
     43 H                    -0.410553      -0.000126
     44 C                     0.706946       0.001069
     45 H                    -0.209290       0.000199
     46 H                    -0.364851       0.000086
     47 C                     0.559671      -0.000772
     48 H                    -0.456119      -0.000060
     49 C                     0.828189       0.002948
     50 H                    -0.373047      -0.000037
     51 H                    -0.334514      -0.000227
     52 C                     0.815264      -0.001520
     53 H                    -0.452219       0.002317
     54 H                    -0.431740       0.001196
     55 C                     0.952173      -0.002955
     56 H                    -0.648671      -0.003682
     57 H                    -0.312044       0.000348
     58 C                     0.457918       0.003805
     59 H                    -0.299051       0.000354
     60 H                    -0.403042       0.000170
     61 O                    -0.880923       0.000035
     62 O                    -0.902125       0.000026
     63 O                    -0.901854       0.213006
     64 Fe                    2.368875       4.160175
     65 O                    -0.888631       0.085362
     66 O                    -0.692346       0.180735
     67 O                    -0.683715       0.081435
     68 O                    -1.168619       0.140703
     69 O                    -0.906744       0.016576
     70 O                    -0.800546       0.076065
  --------------------------------------------------------
  Sum of atomic charges =    -3.000000

                    Cartesian Multipole Moments
 -----------------------------------------------------------------
    Charge (ESU x 10^10)
               -14.4096
    Dipole Moment (Debye)
         X      -0.8626      Y      23.9874      Z      -4.9756
       Tot      24.5132
    Quadrupole Moments (Debye-Ang)
        XX    -493.4998     XY     -38.4442     YY    -321.6479
        XZ     -11.7558     YZ     -46.5114     ZZ    -329.4781

 Total job time:  173291.62s(wall), 3117329.48s(cpu)
        *  Thank you very much for using Q-Chem.  Have a nice day.  *
