 Q-Chem 6.0, Q-Chem, Inc., Pleasanton, CA (2022)
 Q-Chem 6.0.2 for Intel X86 EM64T Linux

User input:
--------------------------------------------------------------
$molecule
-3 6
N   -2.6690461    2.6220600    0.7742126
C   -4.1030210   -1.7871287   -0.7353220
H   -4.8113114   -2.3827663   -0.1312774
N   -2.7509547   -2.0627018   -0.2748885
H   -2.1601995   -2.4160716   -1.0265919
C   -4.2198782   -2.2697574   -2.2130859
O   -5.3568055   -2.1576245   -2.7365686
C   -2.3546707   -2.1196453    1.0117121
O   -3.0996645   -1.8138143    1.9596237
C   -1.8782082    3.6231146    1.1629468
C   -2.3422298    5.0514036    1.0426881
H   -3.3233995    5.2077668    1.5141775
H   -1.6004398    5.6947433    1.5316735
H   -2.4225889    5.3452428   -0.0161421
C   -0.9337010   -2.6112806    1.2369945
H   -0.5737005   -3.1822230    0.3716409
H   -0.9491270   -3.2647717    2.1208736
C    0.0909601   -1.4756287    1.4815707
C   -0.1466659   -0.7735466    2.8544679
C    1.5149764   -2.0811872    1.6483694
H    1.4591086   -2.9098391    2.3738019
H    2.1619366   -1.3109350    2.0947772
C    2.2000770   -2.6013996    0.3911214
O    1.6200691   -3.2187302   -0.5167362
N    3.5248573   -2.3525938    0.3698826
H    3.9999744   -1.9232441    1.1645975
C    5.8972469   -2.7509174   -0.0030296
O    6.8102407   -3.3003362   -0.6659706
N    1.9392445    2.1684635   -0.7117912
C    0.8817990    2.2546384   -1.5250812
C    1.0650735    2.5248237   -2.9920973
H    1.9900927    3.0694200   -3.2170616
H    1.0756428    1.5718446   -3.5465060
H    0.2019121    3.1072279   -3.3425688
C    3.2675959    1.7319359   -1.1580931
H    3.9611386    1.9762990   -0.3412017
H    3.5672697    2.3138996   -2.0408677
C    3.2289438    0.2292886   -1.4365021
H    2.7263052   -0.2362436   -0.5801072
H    2.5851271    0.0518155   -2.3160095
C    4.5848018   -0.4331087   -1.6770763
H    5.0707007    0.0398102   -2.5485316
H    5.2481677   -0.2526069   -0.8124426
C    4.4532768   -1.9487401   -1.9216780
H    3.5261543   -2.1502102   -2.4848362
H    5.2917680   -2.3115186   -2.5357969
C    4.4716335   -2.8007420   -0.6347118
H    4.2482973   -3.8443209   -0.9116821
C   -4.0539217    2.1341057   -1.2558950
H   -3.3967754    2.7542582   -1.8895921
H   -5.0870851    2.3088908   -1.6077595
C   -3.9967025    2.6835797    0.1780511
H   -4.6766981    2.1190139    0.8364633
H   -4.3249475    3.7302065    0.1828261
C   -3.6924613    0.6521217   -1.4516339
H   -2.6278431    0.5067172   -1.2283302
H   -3.8456847    0.4111094   -2.5189139
C   -4.5187401   -0.3109460   -0.5990810
H   -4.4347148   -0.0405253    0.4619823
H   -5.5820359   -0.2469382   -0.8843014
O   -3.1666517   -2.7130604   -2.7533677
O    6.0068692   -2.1356166    1.0970822
O    0.0487168   -0.5408541    0.4454979
Fe   -0.2063076    1.2903564    0.9434683
O   -0.0711938    0.5268847    2.8145987
O   -2.1851273    1.3621873    0.9376298
O   -0.7219003    3.3431734    1.6120716
O    1.6858385    1.8990174    0.6090867
O   -0.3040505   -1.4319617    3.8871614
O   -0.2845024    2.1088518   -1.0451670
$end

$rem
BASIS  =  gen
CORRELATION  =  TPSS
DFT_D  =  D3_BJ
EXCHANGE  =  TPSSH
GUI  =  2
JOB_TYPE  =  Optimization
SCF_CONVERGENCE  =  8
SOLVENT_METHOD  =  PCM
$end

$pcm
THEORY  CPCM
$end

$solvent
DIELECTRIC  78.39
$end

$van_der_waals
26   2.44
$end

!----------------------------------------------------------------------
! Basis Set Exchange
! Basis set: cc-pVDZ
!----------------------------------------------------------------------

$rem
BASIS GEN
PURECART 11
$end

$basis
H     0
S   4   1.00
1.301000D+01           1.968500D-02
1.962000D+00           1.379770D-01
4.446000D-01           4.781480D-01
1.220000D-01           5.012400D-01
S   1   1.00
1.220000D-01           1.000000D+00
P   1   1.00
7.270000D-01           1.0000000
****
C     0
S   9   1.00
6.665000D+03           6.920000D-04
1.000000D+03           5.329000D-03
2.280000D+02           2.707700D-02
6.471000D+01           1.017180D-01
2.106000D+01           2.747400D-01
7.495000D+00           4.485640D-01
2.797000D+00           2.850740D-01
5.215000D-01           1.520400D-02
1.596000D-01          -3.191000D-03
S   9   1.00
6.665000D+03          -1.460000D-04
1.000000D+03          -1.154000D-03
2.280000D+02          -5.725000D-03
6.471000D+01          -2.331200D-02
2.106000D+01          -6.395500D-02
7.495000D+00          -1.499810D-01
2.797000D+00          -1.272620D-01
5.215000D-01           5.445290D-01
1.596000D-01           5.804960D-01
S   1   1.00
1.596000D-01           1.000000D+00
P   4   1.00
9.439000D+00           3.810900D-02
2.002000D+00           2.094800D-01
5.456000D-01           5.085570D-01
1.517000D-01           4.688420D-01
P   1   1.00
1.517000D-01           1.000000D+00
D   1   1.00
5.500000D-01           1.0000000
****
N     0
S   9   1.00
9.046000D+03           7.000000D-04
1.357000D+03           5.389000D-03
3.093000D+02           2.740600D-02
8.773000D+01           1.032070D-01
2.856000D+01           2.787230D-01
1.021000D+01           4.485400D-01
3.838000D+00           2.782380D-01
7.466000D-01           1.544000D-02
2.248000D-01          -2.864000D-03
S   9   1.00
9.046000D+03          -1.530000D-04
1.357000D+03          -1.208000D-03
3.093000D+02          -5.992000D-03
8.773000D+01          -2.454400D-02
2.856000D+01          -6.745900D-02
1.021000D+01          -1.580780D-01
3.838000D+00          -1.218310D-01
7.466000D-01           5.490030D-01
2.248000D-01           5.788150D-01
S   1   1.00
2.248000D-01           1.000000D+00
P   4   1.00
1.355000D+01           3.991900D-02
2.917000D+00           2.171690D-01
7.973000D-01           5.103190D-01
2.185000D-01           4.622140D-01
P   1   1.00
2.185000D-01           1.000000D+00
D   1   1.00
8.170000D-01           1.0000000
****
O     0
S   9   1.00
1.172000D+04           7.100000D-04
1.759000D+03           5.470000D-03
4.008000D+02           2.783700D-02
1.137000D+02           1.048000D-01
3.703000D+01           2.830620D-01
1.327000D+01           4.487190D-01
5.025000D+00           2.709520D-01
1.013000D+00           1.545800D-02
3.023000D-01          -2.585000D-03
S   9   1.00
1.172000D+04          -1.600000D-04
1.759000D+03          -1.263000D-03
4.008000D+02          -6.267000D-03
1.137000D+02          -2.571600D-02
3.703000D+01          -7.092400D-02
1.327000D+01          -1.654110D-01
5.025000D+00          -1.169550D-01
1.013000D+00           5.573680D-01
3.023000D-01           5.727590D-01
S   1   1.00
3.023000D-01           1.000000D+00
P   4   1.00
1.770000D+01           4.301800D-02
3.854000D+00           2.289130D-01
1.046000D+00           5.087280D-01
2.753000D-01           4.605310D-01
P   1   1.00
2.753000D-01           1.000000D+00
D   1   1.00
1.185000D+00           1.0000000
****
Fe     0
S   20   1.00
4.316265D+06           8.048803D-06
6.463424D+05           6.258306D-05
1.470897D+05           3.290239D-04
4.166152D+04           1.387355D-03
1.359077D+04           5.023256D-03
4.905750D+03           1.610140D-02
1.912746D+03           4.590034D-02
7.926043D+02           1.136154D-01
3.448065D+02           2.283869D-01
1.558999D+02           3.221159D-01
7.223091D+01           2.383661D-01
3.272506D+01           7.404667D-02
1.566762D+01           9.214197D-02
7.503483D+00           9.339790D-02
3.312223D+00           1.573965D-02
1.558471D+00          -4.186682D-04
6.839140D-01           5.376318D-05
1.467570D-01          -3.816654D-05
7.058300D-02           4.319603D-05
3.144900D-02          -3.401019D-06
S   20   1.00
4.316265D+06          -4.155954D-06
6.463424D+05          -3.231401D-05
1.470897D+05          -1.699525D-04
4.166152D+04          -7.171369D-04
1.359077D+04          -2.603625D-03
4.905750D+03          -8.399109D-03
1.912746D+03          -2.434109D-02
7.926043D+02          -6.251948D-02
3.448065D+02          -1.365929D-01
1.558999D+02          -2.312707D-01
7.223091D+01          -2.383734D-01
3.272506D+01           3.123837D-02
1.566762D+01           5.086818D-01
7.503483D+00           4.987695D-01
3.312223D+00           9.033552D-02
1.558471D+00          -6.005337D-03
6.839140D-01           2.312454D-04
1.467570D-01          -5.643680D-04
7.058300D-02           4.992260D-04
3.144900D-02          -1.015293D-04
S   20   1.00
4.316265D+06           9.532178D-07
6.463424D+05           7.414605D-06
1.470897D+05           3.898393D-05
4.166152D+04           1.647152D-04
1.359077D+04           5.985980D-04
4.905750D+03           1.942390D-03
1.912746D+03           5.687237D-03
7.926043D+02           1.501329D-02
3.448065D+02           3.452455D-02
1.558999D+02           6.495820D-02
7.223091D+01           7.716194D-02
3.272506D+01          -1.873411D-02
1.566762D+01          -3.009185D-01
7.503483D+00          -4.554661D-01
3.312223D+00           1.286463D-01
1.558471D+00           7.183316D-01
6.839140D-01           4.051743D-01
1.467570D-01           2.168227D-02
7.058300D-02          -8.343566D-03
3.144900D-02           3.658979D-03
S   20   1.00
4.316265D+06          -2.063008D-07
6.463424D+05          -1.604169D-06
1.470897D+05          -8.438437D-06
4.166152D+04          -3.563151D-05
1.359077D+04          -1.295998D-04
4.905750D+03          -4.201534D-04
1.912746D+03          -1.231954D-03
7.926043D+02          -3.248922D-03
3.448065D+02          -7.493717D-03
1.558999D+02          -1.410102D-02
7.223091D+01          -1.691600D-02
3.272506D+01           4.218996D-03
1.566762D+01           6.833810D-02
7.503483D+00           1.098201D-01
3.312223D+00          -4.009005D-02
1.558471D+00          -2.174739D-01

   21   -3318.0142535309      4.89e-09  Convergence criterion met
 Total energy in the final basis set =    -3318.0142535309
   17   -3318.0145823513      5.95e-09  Convergence criterion met
 Total energy in the final basis set =    -3318.0145823513
   17   -3318.0146763900      5.83e-09  Convergence criterion met
 Total energy in the final basis set =    -3318.0146763900
   17   -3318.0147175254      5.77e-09  Convergence criterion met
 Total energy in the final basis set =    -3318.0147175254
   17   -3318.0147423780      5.80e-09  Convergence criterion met
 Total energy in the final basis set =    -3318.0147423780
   17   -3318.0147606518      5.76e-09  Convergence criterion met
 Total energy in the final basis set =    -3318.0147606518
   17   -3318.0147808381      5.72e-09  Convergence criterion met
 Total energy in the final basis set =    -3318.0147808381
   17   -3318.0148014373      5.69e-09  Convergence criterion met
   17   -3318.0148642753      6.91e-09  Convergence criterion met
 Total energy in the final basis set =    -3318.0148642753
   17   -3318.0148631893      6.69e-09  Convergence criterion met
 Total energy in the final basis set =    -3318.0148631893
   17   -3318.0148537275      6.38e-09  Convergence criterion met
 Total energy in the final basis set =    -3318.0148537275
   17   -3318.0148560003      6.24e-09  Convergence criterion met
 Total energy in the final basis set =    -3318.0148560003
   17   -3318.0148572211      6.17e-09  Convergence criterion met
 Total energy in the final basis set =    -3318.0148572211
   17   -3318.0148557568      7.06e-09  Convergence criterion met
 Total energy in the final basis set =    -3318.0148557568
   17   -3318.0148561536      8.61e-09  Convergence criterion met
 Total energy in the final basis set =    -3318.0148561536

                    Orbital Energies (a.u.)
 --------------------------------------------------------------

 Alpha MOs
 -- Occupied --
******** -29.9548 -25.7859 -25.7829 -25.7817 -19.0453 -19.0434 -19.0412
-19.0387 -19.0299 -19.0140 -19.0082 -19.0070 -19.0049 -18.9859 -18.9817
-18.9785 -18.9744 -14.3273 -14.3261 -14.2555 -14.2487 -10.2099 -10.2079
-10.2010 -10.1995 -10.1915 -10.1796 -10.1759 -10.1596 -10.1540 -10.1533
-10.1342 -10.1292 -10.1273 -10.1265 -10.1140 -10.1139 -10.1102 -10.1082
-10.1068 -10.1026 -10.0981 -10.0971  -3.5369  -2.3138  -2.3082  -2.3058
 -1.0458  -1.0410  -1.0058  -0.9854  -0.9766  -0.9746  -0.9713  -0.9710
 -0.9664  -0.9308  -0.9142  -0.8897  -0.8844  -0.8707  -0.8629  -0.8215
 -0.8183  -0.7648  -0.7615  -0.7401  -0.7251  -0.7172  -0.7008  -0.6944
 -0.6809  -0.6584  -0.6480  -0.6099  -0.5992  -0.5785  -0.5583  -0.5565
 -0.5246  -0.5233  -0.5169  -0.5078  -0.4956  -0.4871  -0.4846  -0.4746
 -0.4726  -0.4665  -0.4598  -0.4555  -0.4478  -0.4439  -0.4388  -0.4350
 -0.4312  -0.4270  -0.4230  -0.4215  -0.4144  -0.4100  -0.4032  -0.4027
 -0.3992  -0.3923  -0.3913  -0.3868  -0.3834  -0.3812  -0.3798  -0.3762
 -0.3741  -0.3712  -0.3684  -0.3629  -0.3604  -0.3590  -0.3543  -0.3533
 -0.3514  -0.3494  -0.3478  -0.3439  -0.3425  -0.3381  -0.3370  -0.3351
 -0.3317  -0.3288  -0.3245  -0.3214  -0.3198  -0.3144  -0.3120  -0.3057
 -0.3034  -0.3015  -0.2949  -0.2922  -0.2909  -0.2849  -0.2809  -0.2724
 -0.2576  -0.2552  -0.2516  -0.2340  -0.2247  -0.2213  -0.2168  -0.2135
 -0.2089  -0.2062  -0.2022  -0.2012  -0.1967  -0.1954  -0.1921  -0.1849
 -0.1844  -0.1812  -0.1764  -0.1687

 Beta MOs
 -- Occupied --
******** -29.8738 -25.7169 -25.7151 -25.7144 -19.0425 -19.0379 -19.0369
-19.0364 -19.0264 -19.0140 -19.0076 -19.0049 -18.9998 -18.9859 -18.9817
-18.9785 -18.9744 -14.3271 -14.3259 -14.2555 -14.2487 -10.2099 -10.2078
-10.2010 -10.1994 -10.1915 -10.1796 -10.1759 -10.1595 -10.1540 -10.1532
-10.1342 -10.1292 -10.1272 -10.1265 -10.1140 -10.1138 -10.1102 -10.1082
-10.1068 -10.1024 -10.0981 -10.0971  -3.3345  -2.1028  -2.0993  -2.0985
 -1.0412  -1.0369  -1.0023  -0.9853  -0.9765  -0.9713  -0.9694  -0.9664
 -0.9659  -0.9225  -0.9059  -0.8897  -0.8844  -0.8707  -0.8628  -0.8174
 -0.8138  -0.7644  -0.7611  -0.7380  -0.7246  -0.7164  -0.6999  -0.6933
 -0.6803  -0.6579  -0.6476  -0.6091  -0.5989  -0.5772  -0.5580  -0.5556
 -0.5243  -0.5218  -0.5129  -0.5050  -0.4929  -0.4848  -0.4814  -0.4708
 -0.4661  -0.4630  -0.4572  -0.4491  -0.4468  -0.4409  -0.4375  -0.4333
 -0.4287  -0.4258  -0.4221  -0.4197  -0.4131  -0.4074  -0.4019  -0.4005
 -0.3924  -0.3893  -0.3861  -0.3835  -0.3810  -0.3779  -0.3770  -0.3740
 -0.3710  -0.3657  -0.3641  -0.3587  -0.3558  -0.3547  -0.3520  -0.3515
 -0.3474  -0.3439  -0.3391  -0.3388  -0.3338  -0.3287  -0.3245  -0.3206
 -0.3175  -0.3136  -0.3121  -0.3052  -0.3015  -0.2964  -0.2930  -0.2927
 -0.2873  -0.2813  -0.2702  -0.2689  -0.2609  -0.2537  -0.2469  -0.2439
 -0.2420  -0.2233  -0.2192  -0.2164  -0.2109  -0.2066  -0.2051  -0.2009
 -0.1971  -0.1947  -0.1921  -0.1849  -0.1816  -0.1772  -0.1754

          Ground-State Mulliken Net Atomic Charges

     Atom                 Charge (a.u.)    Spin (a.u.)
  --------------------------------------------------------
      1 N                    -0.059343       0.009652
      2 C                    -0.047156      -0.000036
      3 H                     0.002173      -0.000006
      4 N                    -0.122778      -0.000156
      5 H                     0.091694       0.000085
      6 C                     0.136161       0.000024
      7 O                    -0.471414       0.000024
      8 C                     0.175816       0.000136
      9 O                    -0.410750       0.000782
     10 C                     0.152229       0.014651
     11 C                    -0.023419       0.002029
     12 H                     0.076897      -0.000087
     13 H                     0.058612       0.000256
     14 H                     0.080044       0.001475
     15 C                     0.101816       0.007467
     16 H                     0.016394      -0.000138
     17 H                     0.010599       0.001416
     18 C                    -0.078418       0.006933
     19 C                     0.250130       0.005559
     20 C                     0.048394       0.006216
     21 H                     0.049044       0.001589
     22 H                     0.036556      -0.000027
     23 C                     0.181812      -0.000214
     24 O                    -0.383817       0.000289
     25 N                    -0.134375       0.000017
     26 H                     0.097148      -0.000079
     27 C                     0.146598      -0.000001
     28 O                    -0.461700       0.000015
     29 N                    -0.064370       0.010854
     30 C                     0.146314       0.005801
     31 C                    -0.011291       0.003236
     32 H                     0.068814       0.000649
     33 H                     0.082756       0.000387
     34 H                     0.064219       0.000466
     35 C                     0.112110       0.002307
     36 H                     0.044556       0.000574
     37 H                     0.056569       0.001046
     38 C                    -0.108676       0.000469
     39 H                     0.088444       0.002426
     40 H                     0.033693      -0.000120
     41 C                    -0.032295      -0.000031
     42 H                     0.020239       0.000050
     43 H                     0.016104      -0.000020
     44 C                     0.014979       0.000108
     45 H                     0.009824       0.000001
     46 H                     0.004672       0.000004
     47 C                    -0.036147       0.000013
     48 H                     0.005466       0.000019
     49 C                    -0.032049       0.000153
     50 H                     0.021276      -0.000136
     51 H                     0.027823      -0.000023
     52 C                     0.097875       0.001692
     53 H                     0.055116       0.000580
     54 H                     0.051821       0.001882
     55 C                    -0.066822      -0.000060
     56 H                     0.082004       0.001642
     57 H                     0.003712       0.000373
     58 C                     0.018152       0.000204
     59 H                     0.009084       0.000232
     60 H                    -0.001609       0.000046
     61 O                    -0.464882       0.000007
     62 O                    -0.460571       0.000005
     63 O                    -0.489877       0.223750
     64 Fe                    0.553754       4.146650
     65 O                    -0.415088       0.093898
     66 O                    -0.434816       0.163997
     67 O                    -0.375089       0.061325
     68 O                    -0.451188       0.123852
     69 O                    -0.390170       0.022259
     70 O                    -0.373382       0.071563
  --------------------------------------------------------
  Sum of atomic charges =    -3.000000

                    Cartesian Multipole Moments
 -----------------------------------------------------------------
    Charge (ESU x 10^10)
               -14.4096
    Dipole Moment (Debye)
         X      -4.4482      Y      26.9669      Z      -6.2033
       Tot      28.0264
    Quadrupole Moments (Debye-Ang)
        XX    -494.1646     XY      14.0956     YY    -307.9476
        XZ     -45.0278     YZ     -34.4698     ZZ    -334.2397

 Final energy is -3318.014856153593
	**  OPTIMIZATION CONVERGED  **

             Standard Nuclear Orientation (Angstroms)
    I     Atom           X                Y                Z
 ----------------------------------------------------------------
    1      N      -2.6581977669     2.6191649934     0.8392384488
    2      C      -4.0282680878    -1.7550352983    -0.8118578260
    3      H      -4.7468396795    -2.3873260377    -0.2589044671
    4      N      -2.6893870481    -2.0228449598    -0.3081074342
    5      H      -2.0675388478    -2.3428510563    -1.0550941206
    6      C      -4.0646334993    -2.1788552052    -2.3107259490
    7      O      -5.1788877027    -2.0582697217    -2.8871129758
    8      C      -2.3523012457    -2.1441125684     0.9928354752
    9      O      -3.1503449617    -1.8961203628     1.9199782827
   10      C      -1.8410282438     3.6178608466     1.1862809495
   11      C      -2.2773998004     5.0513752127     1.0307002570
   12      H      -3.2575293401     5.2383238858     1.4935902430
   13      H      -1.5238031831     5.6882939736     1.5101198899
   14      H      -2.3433813032     5.3223959684    -0.0354930075
   15      C      -0.9379281110    -2.6307882610     1.2595401033
   16      H      -0.5563640252    -3.2139521626     0.4098144114
   17      H      -0.9713590740    -3.2677411685     2.1555433387
   18      C       0.0828977430    -1.4925314578     1.5121190653
   19      C      -0.1601964702    -0.7916673156     2.8810034599
   20      C       1.5059707612    -2.1013981512     1.6885940983
   21      H       1.4397595454    -2.9355048676     2.4077560354
   22      H       2.1513107554    -1.3336558319     2.1436134597
   23      C       2.1904482885    -2.6121028231     0.4272439351
   24      O       1.6165834275    -3.2568548553    -0.4710032265
   25      N       3.5077124725    -2.3185987230     0.3842560228
   26      H       3.9913548125    -1.8920771556     1.1816026282
   27      C       5.8815124096    -2.6828048018     0.0348467372
   28      O       6.8214206718    -3.1954951674    -0.6261550522
   29      N       1.8729949950     2.1351663753    -0.7573777937
   30      C       0.7873136853     2.1882149679    -1.5385235633
   31      C       0.9152176133     2.4174813191    -3.0186765535
   32      H       1.8342461866     2.9513729961    -3.2910417754
   33      H       0.8999569607     1.4496567061    -3.5469114425
   34      H       0.0424663747     2.9974610933    -3.3491064695
   35      C       3.2024828402     1.7239624154    -1.2315560246
   36      H       3.9133371808     2.0287423476    -0.4507252951
   37      H       3.4433923409     2.2744539293    -2.1518750098
   38      C       3.1938679247     0.2087146756    -1.4383148331
   39      H       2.7465257632    -0.2275836356    -0.5356873793
   40      H       2.5132654263    -0.0227840975    -2.2769286352
   41      C       4.5542659250    -0.4346104586    -1.7116782491
   42      H       5.0023698490     0.0234185440    -2.6110542865
   43      H       5.2435143380    -0.2252969349    -0.8731738349
   44      C       4.4380381143    -1.9575864127    -1.9182441609
   45      H       3.5134024236    -2.1826986313    -2.4772400119
   46      H       5.2855095475    -2.3268193560    -2.5170107343
   47      C       4.4635935897    -2.7760286643    -0.6101208968
   48      H       4.2569205882    -3.8306947456    -0.8594959925
   49      C      -4.0288682684     2.1787352927    -1.2086504377
   50      H      -3.3794801906     2.8277738397    -1.8205036943
   51      H      -5.0643723820     2.3412521590    -1.5602612483
   52      C      -3.9866512520     2.6874302470     0.2408418214
   53      H      -4.6570219869     2.0950748978     0.8839563985
   54      H      -4.3201847877     3.7323477402     0.2771515038
   55      C      -3.6332849288     0.7097241993    -1.4332180665
   56      H      -2.5733924758     0.5783314940    -1.1725713807
   57      H      -3.7447344787     0.4952061889    -2.5117320917
   58      C      -4.4750979867    -0.2906260914    -0.6389535078
   59      H      -4.4311129840    -0.0524689355     0.4342647056
   60      H      -5.5297494498    -0.2355392666    -0.9590016833
   61      O      -2.9758228865    -2.5887120577    -2.8158737723
   62      O       5.9583090248    -2.0754141437     1.1469548961
   63      O       0.0511110685    -0.5553748704     0.4762650874
   64      Fe     -0.2112845495     1.2749208239     0.9750594419
   65      O      -0.0592163614     0.5096099407     2.8444966852
   66      O      -2.1904811839     1.3556258912     1.0232011200
   67      O      -0.6813638153     3.3245814337     1.6293539708
   68      O       1.6666687940     1.8952763173     0.5763645604
   69      O      -0.3436364844    -1.4499233531     3.9149238323
   70      O      -0.3637359985     2.0515345915    -1.0087940815
 ----------------------------------------------------------------

 Total job time:  726319.23s(wall), 1441629.57s(cpu)
        *  Thank you very much for using Q-Chem.  Have a nice day.  *
