 Q-Chem 6.0, Q-Chem, Inc., Pleasanton, CA (2022)
 Q-Chem 6.0.2 for Intel X86 EM64T Linux

User input:
--------------------------------------------------------------
$molecule
-3 4
N   -2.4262102    2.5604723   -0.8388025
C   -4.3697264   -2.3336989   -0.1243507
H   -4.9163457   -2.9093987    0.6470413
N   -2.9499868   -2.3379094    0.2046549
H   -2.4124937   -2.8745561   -0.4769806
C   -4.5455961   -3.0993934   -1.4737688
O   -5.7154687   -3.1484993   -1.9280402
C   -2.4071864   -1.9391830    1.3721450
O   -3.0622167   -1.3505365    2.2496255
C   -2.0260630    3.5569212   -0.0511169
C   -2.8224130    4.8326616    0.0355603
H   -2.9682921    5.2877820   -0.9554896
H   -3.8154730    4.6506223    0.4749855
H   -2.2735848    5.5343202    0.6753001
C   -0.9430901   -2.2984130    1.5792450
H   -0.5813581   -2.9897818    0.8076472
H   -0.8907196   -2.8071863    2.5541622
C    0.0248566   -1.0904764    1.6136425
C   -0.4023025   -0.0945765    2.7302256
C    1.4595839   -1.5656434    1.9909156
H    1.4140664   -2.2467807    2.8538641
H    2.0406134   -0.6806518    2.2864484
C    2.1625088   -2.2635353    0.8394093
O    1.7302344   -3.3027351    0.3116678
N    3.2951585   -1.6595203    0.4289569
H    3.7112878   -0.9028188    0.9688634
C    5.5855270   -1.5076207   -0.4073526
O    6.4751314   -1.8720256   -1.2109804
N    2.3914871    2.0758288   -0.9324525
C    2.7142644    2.1492393    0.3542508
C    4.1437604    2.3318265    0.7774986
H    4.1514166    2.7719598    1.7833001
H    4.6598169    1.3558948    0.8110818
H    4.6994620    2.9843751    0.0899630
C    3.3172906    1.9925213   -2.0649954
H    2.7035038    2.2093245   -2.9495150
H    4.0716868    2.7879089   -1.9726642
C    3.9927289    0.6221881   -2.1631300
H    4.6786713    0.6320796   -3.0287325
H    4.6205966    0.4922398   -1.2721198
C    3.0007509   -0.5398420   -2.2649117
H    2.2018479   -0.3838117   -1.5239185
H    2.5126842   -0.5208691   -3.2557272
C    3.6132403   -1.9260634   -2.0320803
H    2.8324926   -2.6821713   -2.2133668
H    4.4345799   -2.1257699   -2.7395310
C    4.1798414   -2.1519367   -0.6100848
H    4.3115437   -3.2410287   -0.4841466
C   -4.6661962    1.4818041   -0.9598821
H   -4.7163975    1.7087111    0.1202045
H   -5.6686564    1.6954810   -1.3701588
C   -3.6718365    2.4648034   -1.5943758
H   -4.1047336    3.4700505   -1.6521166
H   -3.4091848    2.1495764   -2.6177236
C   -4.3069943    0.0039695   -1.1649159
H   -3.2225310   -0.1024074   -1.0432693
H   -4.5450688   -0.2942986   -2.2020456
C   -4.9985800   -0.9313343   -0.1757820
H   -4.9406598   -0.4949368    0.8330492
H   -6.0630384   -1.0627410   -0.4265266
O   -3.5035423   -3.6032774   -1.9812468
O    5.7053501   -0.6821135    0.5482107
O    0.0656825   -0.4509090    0.3732389
Fe   -0.0829581    1.4589670    0.3683627
O   -0.6582137    1.1066293    2.3136245
O   -1.6709869    1.4268675   -0.8297078
O   -0.9580370    3.4058589    0.6257068
O    1.0734615    1.8875961   -1.2350858
O   -0.4246347   -0.4524129    3.9146550
O    1.7841578    2.0491767    1.2237764
$end

$rem
BASIS  =  gen
DFT_D  =  D3_BJ
GUI  =  2
JOB_TYPE  =  Optimization
METHOD  =  B3LYP
BASIS GEN
PURECART 11
SCF_CONVERGENCE  =  8
SOLVENT_METHOD  =  PCM
MEM_TOTAL  =  30000
GEOM_OPT_MAX_CYCLES = 200
$end

$pcm
THEORY  CPCM
$end

$solvent
DIELECTRIC  78.39
$end

$van_der_waals
26   2.44
$end

$basis
H     0
S   4   1.00
1.301000D+01           1.968500D-02
1.962000D+00           1.379770D-01
4.446000D-01           4.781480D-01
1.220000D-01           5.012400D-01
S   1   1.00
1.220000D-01           1.000000D+00
P   1   1.00
7.270000D-01           1.0000000
****
C     0
S   9   1.00
6.665000D+03           6.920000D-04
1.000000D+03           5.329000D-03
2.280000D+02           2.707700D-02
6.471000D+01           1.017180D-01
2.106000D+01           2.747400D-01
7.495000D+00           4.485640D-01
2.797000D+00           2.850740D-01
5.215000D-01           1.520400D-02
1.596000D-01          -3.191000D-03
S   9   1.00
6.665000D+03          -1.460000D-04
1.000000D+03          -1.154000D-03
2.280000D+02          -5.725000D-03
6.471000D+01          -2.331200D-02
2.106000D+01          -6.395500D-02
7.495000D+00          -1.499810D-01
2.797000D+00          -1.272620D-01
5.215000D-01           5.445290D-01
1.596000D-01           5.804960D-01
S   1   1.00
1.596000D-01           1.000000D+00
P   4   1.00
9.439000D+00           3.810900D-02
2.002000D+00           2.094800D-01
5.456000D-01           5.085570D-01
1.517000D-01           4.688420D-01
P   1   1.00
1.517000D-01           1.000000D+00
D   1   1.00
5.500000D-01           1.0000000
****
N     0
S   9   1.00
9.046000D+03           7.000000D-04
1.357000D+03           5.389000D-03
3.093000D+02           2.740600D-02
8.773000D+01           1.032070D-01
2.856000D+01           2.787230D-01
1.021000D+01           4.485400D-01
3.838000D+00           2.782380D-01
7.466000D-01           1.544000D-02
2.248000D-01          -2.864000D-03
S   9   1.00
9.046000D+03          -1.530000D-04
1.357000D+03          -1.208000D-03
3.093000D+02          -5.992000D-03
8.773000D+01          -2.454400D-02
2.856000D+01          -6.745900D-02
1.021000D+01          -1.580780D-01
3.838000D+00          -1.218310D-01
7.466000D-01           5.490030D-01
2.248000D-01           5.788150D-01
S   1   1.00
2.248000D-01           1.000000D+00
P   4   1.00
1.355000D+01           3.991900D-02
2.917000D+00           2.171690D-01
7.973000D-01           5.103190D-01
2.185000D-01           4.622140D-01
P   1   1.00
2.185000D-01           1.000000D+00
D   1   1.00
8.170000D-01           1.0000000
****
O     0
S   9   1.00
1.172000D+04           7.100000D-04
1.759000D+03           5.470000D-03
4.008000D+02           2.783700D-02
1.137000D+02           1.048000D-01
3.703000D+01           2.830620D-01
1.327000D+01           4.487190D-01
5.025000D+00           2.709520D-01
1.013000D+00           1.545800D-02
3.023000D-01          -2.585000D-03
S   9   1.00
1.172000D+04          -1.600000D-04
1.759000D+03          -1.263000D-03
4.008000D+02          -6.267000D-03
1.137000D+02          -2.571600D-02
3.703000D+01          -7.092400D-02
1.327000D+01          -1.654110D-01
5.025000D+00          -1.169550D-01
1.013000D+00           5.573680D-01
3.023000D-01           5.727590D-01
S   1   1.00
3.023000D-01           1.000000D+00
P   4   1.00
1.770000D+01           4.301800D-02
3.854000D+00           2.289130D-01
1.046000D+00           5.087280D-01
2.753000D-01           4.605310D-01
P   1   1.00
2.753000D-01           1.000000D+00
D   1   1.00
1.185000D+00           1.0000000
****
Fe     0
S   20   1.00
4.316265D+06           8.048803D-06
6.463424D+05           6.258306D-05
1.470897D+05           3.290239D-04
4.166152D+04           1.387355D-03
1.359077D+04           5.023256D-03
4.905750D+03           1.610140D-02
1.912746D+03           4.590034D-02
7.926043D+02           1.136154D-01
3.448065D+02           2.283869D-01
1.558999D+02           3.221159D-01
7.223091D+01           2.383661D-01
3.272506D+01           7.404667D-02
1.566762D+01           9.214197D-02
7.503483D+00           9.339790D-02
3.312223D+00           1.573965D-02
1.558471D+00          -4.186682D-04
6.839140D-01           5.376318D-05
1.467570D-01          -3.816654D-05
7.058300D-02           4.319603D-05
3.144900D-02          -3.401019D-06
S   20   1.00
4.316265D+06          -4.155954D-06
6.463424D+05          -3.231401D-05
1.470897D+05          -1.699525D-04
4.166152D+04          -7.171369D-04
1.359077D+04          -2.603625D-03
4.905750D+03          -8.399109D-03
1.912746D+03          -2.434109D-02
7.926043D+02          -6.251948D-02
3.448065D+02          -1.365929D-01
1.558999D+02          -2.312707D-01
7.223091D+01          -2.383734D-01
3.272506D+01           3.123837D-02
1.566762D+01           5.086818D-01
7.503483D+00           4.987695D-01
3.312223D+00           9.033552D-02
1.558471D+00          -6.005337D-03
6.839140D-01           2.312454D-04
1.467570D-01          -5.643680D-04
7.058300D-02           4.992260D-04
3.144900D-02          -1.015293D-04
S   20   1.00
4.316265D+06           9.532178D-07
6.463424D+05           7.414605D-06
1.470897D+05           3.898393D-05
4.166152D+04           1.647152D-04
1.359077D+04           5.985980D-04
4.905750D+03           1.942390D-03
1.912746D+03           5.687237D-03
7.926043D+02           1.501329D-02
3.448065D+02           3.452455D-02
1.558999D+02           6.495820D-02
7.223091D+01           7.716194D-02
3.272506D+01          -1.873411D-02
1.566762D+01          -3.009185D-01
7.503483D+00          -4.554661D-01
3.312223D+00           1.286463D-01
1.558471D+00           7.183316D-01
6.839140D-01           4.051743D-01
1.467570D-01           2.168227D-02
7.058300D-02          -8.343566D-03
3.144900D-02           3.658979D-03
S   20   1.00
4.316265D+06          -2.063008D-07
6.463424D+05          -1.604169D-06
1.470897D+05          -8.438437D-06
4.166152D+04          -3.563151D-05
1.359077D+04          -1.295998D-04
4.905750D+03          -4.201534D-04
1.912746D+03          -1.231954D-03
7.926043D+02          -3.248922D-03
3.448065D+02          -7.493717D-03
1.558999D+02          -1.410102D-02
7.223091D+01          -1.691600D-02
3.272506D+01           4.218996D-03
1.566762D+01           6.833810D-02
7.503483D+00           1.098201D-01
3.312223D+00          -4.009005D-02
1.558471D+00          -2.174739D-01
6.839140D-01          -2.465135D-01
1.467570D-01           2.731435D-01
7.058300D-02           5.748321D-01
3.144900D-02           3.012713D-01
S   20   1.00
4.316265D+06          -4.009367D-07
6.463424D+05          -3.189255D-06

   46   -3317.9786703042      5.83e-09  Convergence criterion met
 Total energy in the final basis set =    -3317.9786703042
   31   -3317.9806166141      8.61e-09  Convergence criterion met
 Total energy in the final basis set =    -3317.9806166141
   26   -3317.9795752387      8.76e-09  Convergence criterion met
 Total energy in the final basis set =    -3317.9795752387
   25   -3317.9835296658      8.14e-09  Convergence criterion met
 Total energy in the final basis set =    -3317.9835296658
   25   -3317.9842039233      9.25e-09  Convergence criterion met
 Total energy in the final basis set =    -3317.9842039233
   28   -3317.9852497216      6.35e-09  Convergence criterion met
 Total energy in the final basis set =    -3317.9852497216
   22   -3317.9855846736      9.08e-09  Convergence criterion met
 Total energy in the final basis set =    -3317.9855846736
   23   -3317.9860010668      7.10e-09  Convergence criterion met
   23   -3317.9863177672      9.56e-09  Convergence criterion met
 Total energy in the final basis set =    -3317.9863177672
   23   -3317.9863215471      9.15e-09  Convergence criterion met
 Total energy in the final basis set =    -3317.9863215471
   23   -3317.9863246794      8.64e-09  Convergence criterion met
 Total energy in the final basis set =    -3317.9863246794
   23   -3317.9863274074      8.11e-09  Convergence criterion met
 Total energy in the final basis set =    -3317.9863274074
   23   -3317.9863297032      7.95e-09  Convergence criterion met
 Total energy in the final basis set =    -3317.9863297032
   23   -3317.9863311414      7.01e-09  Convergence criterion met
 Total energy in the final basis set =    -3317.9863311414
   23   -3317.9863320508      8.72e-09  Convergence criterion met
 Total energy in the final basis set =    -3317.9863320508

                    Orbital Energies (a.u.)
 --------------------------------------------------------------

 Alpha MOs
 -- Occupied --
******** -30.0672 -25.9361 -25.9201 -25.9104 -19.1289 -19.1139 -19.1076
-19.1070 -19.1064 -19.0951 -19.0896 -19.0868 -19.0862 -19.0630 -19.0586
-19.0567 -19.0518 -14.4029 -14.3903 -14.3267 -14.3246 -10.2803 -10.2694
-10.2673 -10.2665 -10.2649 -10.2492 -10.2452 -10.2238 -10.2184 -10.2120
-10.1964 -10.1948 -10.1912 -10.1780 -10.1767 -10.1738 -10.1699 -10.1696
-10.1660 -10.1630 -10.1617 -10.1581  -3.5206  -2.3274  -2.2836  -2.2680
 -1.0734  -1.0579  -1.0357  -1.0139  -1.0106  -1.0017  -1.0013  -0.9973
 -0.9879  -0.9599  -0.9406  -0.9171  -0.9132  -0.8970  -0.8926  -0.8460
 -0.8373  -0.7867  -0.7827  -0.7636  -0.7485  -0.7384  -0.7216  -0.7130
 -0.7031  -0.6810  -0.6696  -0.6326  -0.6226  -0.6046  -0.5809  -0.5766
 -0.5458  -0.5416  -0.5379  -0.5234  -0.5195  -0.5124  -0.5061  -0.4949
 -0.4899  -0.4849  -0.4822  -0.4759  -0.4666  -0.4638  -0.4607  -0.4546
 -0.4524  -0.4491  -0.4388  -0.4375  -0.4328  -0.4282  -0.4251  -0.4221
 -0.4188  -0.4160  -0.4094  -0.4055  -0.4028  -0.3989  -0.3968  -0.3943
 -0.3939  -0.3889  -0.3880  -0.3843  -0.3826  -0.3793  -0.3756  -0.3742
 -0.3691  -0.3657  -0.3646  -0.3609  -0.3581  -0.3575  -0.3494  -0.3474
 -0.3448  -0.3411  -0.3400  -0.3364  -0.3339  -0.3278  -0.3197  -0.3170
 -0.3157  -0.3147  -0.3097  -0.3060  -0.3045  -0.3007  -0.2940  -0.2766
 -0.2759  -0.2658  -0.2632  -0.2490  -0.2430  -0.2412  -0.2379  -0.2315
 -0.2266  -0.2264  -0.2221  -0.2191  -0.2182  -0.2157  -0.2089  -0.2060
 -0.2027  -0.1936  -0.1847

 Beta MOs
 -- Occupied --
******** -30.0072 -25.8823 -25.8715 -25.8631 -19.1286 -19.1103 -19.1063
-19.1053 -19.1043 -19.0953 -19.0896 -19.0868 -19.0862 -19.0630 -19.0586
-19.0567 -19.0518 -14.4028 -14.3902 -14.3267 -14.3246 -10.2805 -10.2695
-10.2673 -10.2667 -10.2649 -10.2492 -10.2452 -10.2238 -10.2183 -10.2120
-10.1964 -10.1948 -10.1912 -10.1779 -10.1767 -10.1737 -10.1699 -10.1696
-10.1660 -10.1629 -10.1617 -10.1581  -3.3791  -2.1698  -2.1399  -2.1224
 -1.0710  -1.0555  -1.0351  -1.0139  -1.0106  -1.0013  -0.9996  -0.9973
 -0.9842  -0.9600  -0.9399  -0.9171  -0.9132  -0.8970  -0.8926  -0.8428
 -0.8350  -0.7866  -0.7825  -0.7635  -0.7484  -0.7382  -0.7212  -0.7125
 -0.7027  -0.6809  -0.6695  -0.6324  -0.6223  -0.6044  -0.5806  -0.5763
 -0.5456  -0.5414  -0.5358  -0.5216  -0.5187  -0.5111  -0.5056  -0.4939
 -0.4880  -0.4827  -0.4798  -0.4737  -0.4650  -0.4632  -0.4595  -0.4541
 -0.4521  -0.4483  -0.4384  -0.4370  -0.4319  -0.4278  -0.4238  -0.4214
 -0.4182  -0.4148  -0.4083  -0.4034  -0.4012  -0.3978  -0.3953  -0.3925
 -0.3909  -0.3878  -0.3871  -0.3822  -0.3819  -0.3752  -0.3748  -0.3728
 -0.3671  -0.3645  -0.3615  -0.3586  -0.3559  -0.3535  -0.3474  -0.3445
 -0.3396  -0.3348  -0.3246  -0.3204  -0.3178  -0.3159  -0.3141  -0.3108
 -0.3057  -0.3046  -0.2987  -0.2917  -0.2839  -0.2752  -0.2695  -0.2678
 -0.2580  -0.2470  -0.2413  -0.2398  -0.2382  -0.2339  -0.2277  -0.2249
 -0.2217  -0.2191  -0.2158  -0.2091  -0.2060  -0.2045  -0.1944  -0.1809

          Ground-State Mulliken Net Atomic Charges

     Atom                 Charge (a.u.)    Spin (a.u.)
  --------------------------------------------------------
      1 N                    -0.019778       0.005580
      2 C                    -0.015262       0.000013
      3 H                    -0.011509       0.000005
      4 N                    -0.091654      -0.000052
      5 H                     0.076817       0.000009
      6 C                     0.093043       0.000001
      7 O                    -0.450150      -0.000000
      8 C                     0.135249       0.000552
      9 O                    -0.373404      -0.000402
     10 C                     0.125296      -0.003245
     11 C                     0.024480      -0.000623
     12 H                     0.069712      -0.000771
     13 H                     0.069564      -0.000130
     14 H                     0.047265      -0.000013
     15 C                     0.134528      -0.001946
     16 H                    -0.001700       0.000148
     17 H                     0.009543      -0.000507
     18 C                    -0.079444       0.002056
     19 C                     0.223967       0.000725
     20 C                     0.121460       0.004848
     21 H                     0.014992       0.000677
     22 H                     0.005371       0.000524
     23 C                     0.141331       0.000051
     24 O                    -0.371928      -0.000203
     25 N                    -0.088484      -0.000074
     26 H                     0.097499      -0.000068
     27 C                     0.106075       0.000005
     28 O                    -0.435382       0.000008
     29 N                    -0.024900       0.006876
     30 C                     0.107866      -0.005081
     31 C                     0.000534       0.003579
     32 H                     0.033305       0.000139
     33 H                     0.066463      -0.000168
     34 H                     0.045674       0.000036
     35 C                     0.139638       0.000400
     36 H                     0.021229       0.000231
     37 H                     0.030083       0.000045
     38 C                    -0.034717       0.000404
     39 H                    -0.000007       0.000430
     40 H                     0.019879       0.000031
     41 C                    -0.041999      -0.000074
     42 H                     0.073318       0.001332
     43 H                    -0.009693      -0.000019
     44 C                     0.049427       0.000078
     45 H                    -0.014769      -0.000002
     46 H                    -0.018885       0.000007
     47 C                    -0.010323      -0.000013
     48 H                    -0.007547       0.000000
     49 C                    -0.002292      -0.000080
     50 H                     0.012105       0.000052
     51 H                     0.012170      -0.000040
     52 C                     0.128332       0.001808
     53 H                     0.033085       0.001285
     54 H                     0.027942       0.000744
     55 C                    -0.026053       0.000660
     56 H                     0.027385       0.000312
     57 H                    -0.007696       0.000040
     58 C                     0.050130      -0.000024
     59 H                    -0.013747       0.000015
     60 H                    -0.019314       0.000040
     61 O                    -0.444322      -0.000001
     62 O                    -0.430113       0.000007
     63 O                    -0.442601      -0.018512
     64 Fe                    0.451273       2.761949
     65 O                    -0.381340       0.012918
     66 O                    -0.428562       0.102652
     67 O                    -0.362558       0.003159
     68 O                    -0.441636       0.064667
     69 O                    -0.367043      -0.002039
     70 O                    -0.357217       0.054988
  --------------------------------------------------------
  Sum of atomic charges =    -3.000000

                    Cartesian Multipole Moments
 -----------------------------------------------------------------
    Charge (ESU x 10^10)
               -14.4096
    Dipole Moment (Debye)
         X      -0.7729      Y      22.3442      Z      -3.7773
       Tot      22.6745
    Quadrupole Moments (Debye-Ang)
        XX    -486.2226     XY     -41.5210     YY    -311.3177
        XZ      -6.1201     YZ     -44.1183     ZZ    -316.2680

 Final energy is -3317.986332050797
	**  OPTIMIZATION CONVERGED  **

             Standard Nuclear Orientation (Angstroms)
    I     Atom           X                Y                Z
 ----------------------------------------------------------------
    1      N      -2.3939035329     2.4584825973    -0.9116235050
    2      C      -4.3995998961    -2.3214721233    -0.0527748611
    3      H      -4.9170089683    -2.8664916849     0.7593761376
    4      N      -2.9679863858    -2.3209286048     0.2205921486
    5      H      -2.4551807502    -2.8631167393    -0.4757288648
    6      C      -4.6320140315    -3.1276130207    -1.3692394347
    7      O      -5.8215178618    -3.1961023126    -1.7663186935
    8      C      -2.3888738289    -1.9233643270     1.3704293647
    9      O      -3.0169515430    -1.3420855257     2.2714751456
   10      C      -1.9636019968     3.4591271044    -0.1591510501
   11      C      -2.6658379526     4.7883583407    -0.1354186977
   12      H      -2.8168205796     5.1868290577    -1.1492810216
   13      H      -3.6517718861     4.7028718107     0.3484068942
   14      H      -2.0509924599     5.4913773101     0.4398990980
   15      C      -0.9172089506    -2.2800691074     1.5298856641
   16      H      -0.5634997339    -2.9272526128     0.7180049944
   17      H      -0.8378160588    -2.8391438610     2.4756007415
   18      C       0.0400326538    -1.0685582743     1.6116615120
   19      C      -0.4060137850    -0.1107987873     2.7398203411
   20      C       1.4808662391    -1.5311860011     1.9538486826
   21      H       1.4501395311    -2.2220535512     2.8100290132
   22      H       2.0611450758    -0.6467531356     2.2498658648
   23      C       2.1682503718    -2.2191686367     0.7851464943
   24      O       1.7075507363    -3.2301684462     0.2278482576
   25      N       3.3197011648    -1.6402062835     0.3955854142
   26      H       3.7563875007    -0.9077128723     0.9521772477
   27      C       5.5979878535    -1.5042760639    -0.4768532225
   28      O       6.4634249192    -1.8511122429    -1.3141584332
   29      N       2.3582447154     2.0830538660    -0.7868753032
   30      C       2.7086443125     2.0996125247     0.4991128113
   31      C       4.1549563056     2.2736751582     0.8832125118
   32      H       4.1903359149     2.6695093147     1.9070425149
   33      H       4.6832177827     1.3045793985     0.8609401340
   34      H       4.6869656398     2.9618076525     0.2115348172
   35      C       3.2703610907     2.0552899478    -1.9327607190
   36      H       2.6467321713     2.3105893662    -2.8002610268
   37      H       4.0221197081     2.8500073714    -1.8141563294
   38      C       3.9537823225     0.6970894309    -2.1069598875
   39      H       4.6293134841     0.7521253911    -2.9793496586
   40      H       4.5934581659     0.5285289774    -1.2310316693
   41      C       2.9680784816    -0.4650344882    -2.2540868801
   42      H       2.1670886818    -0.3396453286    -1.5097012844
   43      H       2.4807392574    -0.4106643187    -3.2441351631
   44      C       3.5897853735    -1.8549365771    -2.0755904382
   45      H       2.8097174428    -2.6083806640    -2.2698075997
   46      H       4.4023260154    -2.0274703667    -2.7998042524
   47      C       4.1789699846    -2.1215695124    -0.6698160882
   48      H       4.2977063393    -3.2150308545    -0.5701139553
   49      C      -4.6677766704     1.4661535097    -1.0032819893
   50      H      -4.6828021023     1.7114098361     0.0738175574
   51      H      -5.6679098913     1.7207884867    -1.3945282597
   52      C      -3.6412942454     2.3944876223    -1.6700226207
   53      H      -4.0362898655     3.4135813949    -1.7547918644
   54      H      -3.3908476482     2.0404283899    -2.6835038896
   55      C      -4.3766179596    -0.0298389627    -1.1923389864
   56      H      -3.2903138833    -0.1684679083    -1.1431490631
   57      H      -4.7004469482    -0.3483143279    -2.1995161733
   58      C      -5.0199979822    -0.9159367086    -0.1267739894
   59      H      -4.9004893037    -0.4401265539     0.8588464637
   60      H      -6.0988092709    -1.0441436099    -0.3088771528
   61      O      -3.6103077069    -3.6376432745    -1.9108763692
   62      O       5.7528983598    -0.7195717375     0.5073197740
   63      O       0.0397552146    -0.3920713051     0.3739233271
   64      Fe     -0.1630911744     1.4244571740     0.4630267177
   65      O      -0.7271283096     1.0828264985     2.3240959802
   66      O      -1.6983864729     1.2870128597    -0.8396504943
   67      O      -0.9270563113     3.2707066777     0.5781170261
   68      O       1.0399795039     1.9056908684    -1.0956898628
   69      O      -0.3974076940    -0.4580551665     3.9226055151
   70      O       1.8114208281     1.9628708415     1.3889388878
 ----------------------------------------------------------------

 Total job time:  99463.33s(wall), 1417536.42s(cpu)
        *  Thank you very much for using Q-Chem.  Have a nice day.  *
