 Q-Chem 6.0, Q-Chem, Inc., Pleasanton, CA (2022)
 Q-Chem 6.0.2 for Intel X86 EM64T Linux

User input:
--------------------------------------------------------------
$molecule
-3 4
N   -2.3939035    2.4584826   -0.9116235
C   -4.3995999   -2.3214721   -0.0527749
H   -4.9170090   -2.8664917    0.7593761
N   -2.9679864   -2.3209286    0.2205921
H   -2.4551808   -2.8631167   -0.4757289
C   -4.6320140   -3.1276130   -1.3692394
O   -5.8215179   -3.1961023   -1.7663187
C   -2.3888738   -1.9233643    1.3704294
O   -3.0169515   -1.3420855    2.2714751
C   -1.9636020    3.4591271   -0.1591511
C   -2.6658380    4.7883583   -0.1354187
H   -2.8168206    5.1868291   -1.1492810
H   -3.6517719    4.7028718    0.3484069
H   -2.0509925    5.4913773    0.4398991
C   -0.9172090   -2.2800691    1.5298857
H   -0.5634997   -2.9272526    0.7180050
H   -0.8378161   -2.8391439    2.4756007
C    0.0400327   -1.0685583    1.6116615
C   -0.4060138   -0.1107988    2.7398203
C    1.4808662   -1.5311860    1.9538487
H    1.4501395   -2.2220536    2.8100290
H    2.0611451   -0.6467531    2.2498659
C    2.1682504   -2.2191686    0.7851465
O    1.7075507   -3.2301684    0.2278483
N    3.3197012   -1.6402063    0.3955854
H    3.7563875   -0.9077129    0.9521772
C    5.5979879   -1.5042761   -0.4768532
O    6.4634249   -1.8511122   -1.3141584
N    2.3582447    2.0830539   -0.7868753
C    2.7086443    2.0996125    0.4991128
C    4.1549563    2.2736752    0.8832125
H    4.1903359    2.6695093    1.9070425
H    4.6832178    1.3045794    0.8609401
H    4.6869656    2.9618077    0.2115348
C    3.2703611    2.0552899   -1.9327607
H    2.6467322    2.3105894   -2.8002610
H    4.0221197    2.8500074   -1.8141563
C    3.9537823    0.6970894   -2.1069599
H    4.6293135    0.7521254   -2.9793497
H    4.5934582    0.5285290   -1.2310317
C    2.9680785   -0.4650345   -2.2540869
H    2.1670887   -0.3396453   -1.5097013
H    2.4807393   -0.4106643   -3.2441352
C    3.5897854   -1.8549366   -2.0755904
H    2.8097174   -2.6083807   -2.2698076
H    4.4023260   -2.0274704   -2.7998043
C    4.1789700   -2.1215695   -0.6698161
H    4.2977063   -3.2150309   -0.5701140
C   -4.6677767    1.4661535   -1.0032820
H   -4.6828021    1.7114098    0.0738176
H   -5.6679099    1.7207885   -1.3945283
C   -3.6412942    2.3944876   -1.6700226
H   -4.0362899    3.4135814   -1.7547919
H   -3.3908476    2.0404284   -2.6835039
C   -4.3766180   -0.0298390   -1.1923390
H   -3.2903139   -0.1684679   -1.1431491
H   -4.7004469   -0.3483143   -2.1995162
C   -5.0199980   -0.9159367   -0.1267740
H   -4.9004893   -0.4401266    0.8588465
H   -6.0988093   -1.0441436   -0.3088772
O   -3.6103077   -3.6376433   -1.9108764
O    5.7528984   -0.7195717    0.5073198
O    0.0397552   -0.3920713    0.3739233
Fe   -0.1630912    1.4244572    0.4630267
O   -0.7271283    1.0828265    2.3240960
O   -1.6983865    1.2870129   -0.8396505
O   -0.9270563    3.2707067    0.5781170
O    1.0399795    1.9056909   -1.0956899
O   -0.3974077   -0.4580552    3.9226055
O    1.8114208    1.9628708    1.3889389
$end

$rem
BASIS  =  gen
CIS_N_ROOTS  =  100
CORRELATION  =  TPSS
EXCHANGE  =  TPSSH
GUI  =  2
JOB_TYPE  =  SP
SCF_CONVERGENCE  =  8
SOLVENT_METHOD  =  PCM
UNRESTRICTED  =  1
MAX_SCF_CYCLES = 200
MEM_TOTAL  =  50000
$end

$pcm
THEORY  CPCM
$end

$solvent
DIELECTRIC  78.39
$end

$van_der_waals
26   2.44
$end

!----------------------------------------------------------------------
! Basis Set Exchange
! Basis set: aug-cc-pVDZ
!----------------------------------------------------------------------

$rem
BASIS GEN
PURECART 11
$end

$basis
H     0
S   4   1.00
1.301000D+01           1.968500D-02
1.962000D+00           1.379770D-01
4.446000D-01           4.781480D-01
1.220000D-01           5.012400D-01
S   1   1.00
1.220000D-01           1.000000D+00
S   1   1.00
0.0297400              1.0000000
P   1   1.00
7.270000D-01           1.0000000
P   1   1.00
0.1410000              1.0000000
****
C     0
S   9   1.00
6.665000D+03           6.920000D-04
1.000000D+03           5.329000D-03
2.280000D+02           2.707700D-02
6.471000D+01           1.017180D-01
2.106000D+01           2.747400D-01
7.495000D+00           4.485640D-01
2.797000D+00           2.850740D-01
5.215000D-01           1.520400D-02
1.596000D-01          -3.191000D-03
S   9   1.00
6.665000D+03          -1.460000D-04
1.000000D+03          -1.154000D-03
2.280000D+02          -5.725000D-03
6.471000D+01          -2.331200D-02
2.106000D+01          -6.395500D-02
7.495000D+00          -1.499810D-01
2.797000D+00          -1.272620D-01
5.215000D-01           5.445290D-01
1.596000D-01           5.804960D-01
S   1   1.00
1.596000D-01           1.000000D+00
S   1   1.00
0.0469000              1.0000000
P   4   1.00
9.439000D+00           3.810900D-02
2.002000D+00           2.094800D-01
5.456000D-01           5.085570D-01
1.517000D-01           4.688420D-01
P   1   1.00
1.517000D-01           1.000000D+00
P   1   1.00
0.0404100              1.0000000
D   1   1.00
5.500000D-01           1.0000000
D   1   1.00
0.1510000              1.0000000
****
N     0
S   9   1.00
9.046000D+03           7.000000D-04
1.357000D+03           5.389000D-03
3.093000D+02           2.740600D-02
8.773000D+01           1.032070D-01
2.856000D+01           2.787230D-01
1.021000D+01           4.485400D-01
3.838000D+00           2.782380D-01
7.466000D-01           1.544000D-02
2.248000D-01          -2.864000D-03
S   9   1.00
9.046000D+03          -1.530000D-04
1.357000D+03          -1.208000D-03
3.093000D+02          -5.992000D-03
8.773000D+01          -2.454400D-02
2.856000D+01          -6.745900D-02
1.021000D+01          -1.580780D-01
3.838000D+00          -1.218310D-01
7.466000D-01           5.490030D-01
2.248000D-01           5.788150D-01
S   1   1.00
2.248000D-01           1.000000D+00
S   1   1.00
0.0612400              1.0000000
P   4   1.00
1.355000D+01           3.991900D-02
2.917000D+00           2.171690D-01
7.973000D-01           5.103190D-01
2.185000D-01           4.622140D-01
P   1   1.00
2.185000D-01           1.000000D+00
P   1   1.00
0.0561100              1.0000000
D   1   1.00
8.170000D-01           1.0000000
D   1   1.00
0.2300000              1.0000000
****
O     0
S   9   1.00
1.172000D+04           7.100000D-04
1.759000D+03           5.470000D-03
4.008000D+02           2.783700D-02
1.137000D+02           1.048000D-01
3.703000D+01           2.830620D-01
1.327000D+01           4.487190D-01
5.025000D+00           2.709520D-01
1.013000D+00           1.545800D-02
3.023000D-01          -2.585000D-03
S   9   1.00
1.172000D+04          -1.600000D-04
1.759000D+03          -1.263000D-03
4.008000D+02          -6.267000D-03
1.137000D+02          -2.571600D-02
3.703000D+01          -7.092400D-02
1.327000D+01          -1.654110D-01
5.025000D+00          -1.169550D-01
1.013000D+00           5.573680D-01
3.023000D-01           5.727590D-01
S   1   1.00
3.023000D-01           1.000000D+00
S   1   1.00
0.0789600              1.0000000
P   4   1.00
1.770000D+01           4.301800D-02
3.854000D+00           2.289130D-01
1.046000D+00           5.087280D-01
2.753000D-01           4.605310D-01
P   1   1.00
2.753000D-01           1.000000D+00
P   1   1.00
0.0685600              1.0000000
D   1   1.00
1.185000D+00           1.0000000
D   1   1.00
0.3320000              1.0000000
****
Fe     0
S   20   1.00
4.316265D+06           8.048803D-06
6.463424D+05           6.258306D-05
1.470897D+05           3.290239D-04
4.166152D+04           1.387355D-03
1.359077D+04           5.023256D-03
4.905750D+03           1.610140D-02
1.912746D+03           4.590034D-02
7.926043D+02           1.136154D-01
3.448065D+02           2.283869D-01
1.558999D+02           3.221159D-01
7.223091D+01           2.383661D-01
3.272506D+01           7.404667D-02
1.566762D+01           9.214197D-02
7.503483D+00           9.339790D-02
3.312223D+00           1.573965D-02
1.558471D+00          -4.186682D-04
6.839140D-01           5.376318D-05
1.467570D-01          -3.816654D-05
7.058300D-02           4.319603D-05
3.144900D-02          -3.401019D-06
S   20   1.00
4.316265D+06          -4.155954D-06
6.463424D+05          -3.231401D-05
1.470897D+05          -1.699525D-04
4.166152D+04          -7.171369D-04
1.359077D+04          -2.603625D-03
4.905750D+03          -8.399109D-03
1.912746D+03          -2.434109D-02
7.926043D+02          -6.251948D-02
3.448065D+02          -1.365929D-01
1.558999D+02          -2.312707D-01
7.223091D+01          -2.383734D-01
3.272506D+01           3.123837D-02
1.566762D+01           5.086818D-01
7.503483D+00           4.987695D-01
3.312223D+00           9.033552D-02
1.558471D+00          -6.005337D-03
6.839140D-01           2.312454D-04
1.467570D-01          -5.643680D-04
7.058300D-02           4.992260D-04
3.144900D-02          -1.015293D-04
S   20   1.00
4.316265D+06           9.532178D-07
6.463424D+05           7.414605D-06
1.470897D+05           3.898393D-05
4.166152D+04           1.647152D-04
1.359077D+04           5.985980D-04
4.905750D+03           1.942390D-03
1.912746D+03           5.687237D-03
7.926043D+02           1.501329D-02
3.448065D+02           3.452455D-02
1.558999D+02           6.495820D-02
7.223091D+01           7.716194D-02
3.272506D+01          -1.873411D-02

             Standard Nuclear Orientation (Angstroms)
    I     Atom           X                Y                Z
 ----------------------------------------------------------------
    1      N      -2.3939035000     2.4584826000    -0.9116235000
    2      C      -4.3995999000    -2.3214721000    -0.0527749000
    3      H      -4.9170090000    -2.8664917000     0.7593761000
    4      N      -2.9679864000    -2.3209286000     0.2205921000
    5      H      -2.4551808000    -2.8631167000    -0.4757289000
    6      C      -4.6320140000    -3.1276130000    -1.3692394000
    7      O      -5.8215179000    -3.1961023000    -1.7663187000
    8      C      -2.3888738000    -1.9233643000     1.3704294000
    9      O      -3.0169515000    -1.3420855000     2.2714751000
   10      C      -1.9636020000     3.4591271000    -0.1591511000
   11      C      -2.6658380000     4.7883583000    -0.1354187000
   12      H      -2.8168206000     5.1868291000    -1.1492810000
   13      H      -3.6517719000     4.7028718000     0.3484069000
   14      H      -2.0509925000     5.4913773000     0.4398991000
   15      C      -0.9172090000    -2.2800691000     1.5298857000
   16      H      -0.5634997000    -2.9272526000     0.7180050000
   17      H      -0.8378161000    -2.8391439000     2.4756007000
   18      C       0.0400327000    -1.0685583000     1.6116615000
   19      C      -0.4060138000    -0.1107988000     2.7398203000
   20      C       1.4808662000    -1.5311860000     1.9538487000
   21      H       1.4501395000    -2.2220536000     2.8100290000
   22      H       2.0611451000    -0.6467531000     2.2498659000
   23      C       2.1682504000    -2.2191686000     0.7851465000
   24      O       1.7075507000    -3.2301684000     0.2278483000
   25      N       3.3197012000    -1.6402063000     0.3955854000
   26      H       3.7563875000    -0.9077129000     0.9521772000
   27      C       5.5979879000    -1.5042761000    -0.4768532000
   28      O       6.4634249000    -1.8511122000    -1.3141584000
   29      N       2.3582447000     2.0830539000    -0.7868753000
   30      C       2.7086443000     2.0996125000     0.4991128000
   31      C       4.1549563000     2.2736752000     0.8832125000
   32      H       4.1903359000     2.6695093000     1.9070425000
   33      H       4.6832178000     1.3045794000     0.8609401000
   34      H       4.6869656000     2.9618077000     0.2115348000
   35      C       3.2703611000     2.0552899000    -1.9327607000
   36      H       2.6467322000     2.3105894000    -2.8002610000
   37      H       4.0221197000     2.8500074000    -1.8141563000
   38      C       3.9537823000     0.6970894000    -2.1069599000
   39      H       4.6293135000     0.7521254000    -2.9793497000
   40      H       4.5934582000     0.5285290000    -1.2310317000
   41      C       2.9680785000    -0.4650345000    -2.2540869000
   42      H       2.1670887000    -0.3396453000    -1.5097013000
   43      H       2.4807393000    -0.4106643000    -3.2441352000
   44      C       3.5897854000    -1.8549366000    -2.0755904000
   45      H       2.8097174000    -2.6083807000    -2.2698076000
   46      H       4.4023260000    -2.0274704000    -2.7998043000
   47      C       4.1789700000    -2.1215695000    -0.6698161000
   48      H       4.2977063000    -3.2150309000    -0.5701140000
   49      C      -4.6677767000     1.4661535000    -1.0032820000
   50      H      -4.6828021000     1.7114098000     0.0738176000
   51      H      -5.6679099000     1.7207885000    -1.3945283000
   52      C      -3.6412942000     2.3944876000    -1.6700226000
   53      H      -4.0362899000     3.4135814000    -1.7547919000
   54      H      -3.3908476000     2.0404284000    -2.6835039000
   55      C      -4.3766180000    -0.0298390000    -1.1923390000
   56      H      -3.2903139000    -0.1684679000    -1.1431491000
   57      H      -4.7004469000    -0.3483143000    -2.1995162000
   58      C      -5.0199980000    -0.9159367000    -0.1267740000
   59      H      -4.9004893000    -0.4401266000     0.8588465000
   60      H      -6.0988093000    -1.0441436000    -0.3088772000
   61      O      -3.6103077000    -3.6376433000    -1.9108764000
   62      O       5.7528984000    -0.7195717000     0.5073198000
   63      O       0.0397552000    -0.3920713000     0.3739233000
   64      Fe     -0.1630912000     1.4244572000     0.4630267000
   65      O      -0.7271283000     1.0828265000     2.3240960000
   66      O      -1.6983865000     1.2870129000    -0.8396505000
   67      O      -0.9270563000     3.2707067000     0.5781170000
   68      O       1.0399795000     1.9056909000    -1.0956899000
   69      O      -0.3974077000    -0.4580552000     3.9226055000
   70      O       1.8114208000     1.9628708000     1.3889389000
 ----------------------------------------------------------------

   57   -3318.0512798911      9.26e-09  Convergence criterion met
 Total energy in the final basis set =    -3318.0512798911

         TDDFT/TDA Excitation Energies
 ---------------------------------------------------

 Excited state   1: excitation energy (eV) =    0.8142
 Total energy for state  1:                 -3318.02135810 au
    <S**2>     :  3.8151
    Trans. Mom.: -0.0147 X   0.0434 Y  -0.0698 Z
    Strength   :     0.0001390319
    S(    2) --> V(    1) amplitude = -0.3307 alpha
    D(  159) --> S(    1) amplitude = -0.2696 beta
    D(  159) --> S(    2) amplitude = -0.2890 beta
    D(  160) --> S(    1) amplitude =  0.5626 beta
    D(  160) --> S(    2) amplitude =  0.5617 beta

 Excited state   2: excitation energy (eV) =    0.9615
 Total energy for state  2:                 -3318.01594601 au
    <S**2>     :  3.8780
    Trans. Mom.: -0.0241 X  -0.0140 Y   0.0205 Z
    Strength   :     0.0000281679
    S(    2) --> V(    1) amplitude =  0.2104 alpha
    D(  159) --> S(    1) amplitude = -0.3108 beta
    D(  159) --> S(    2) amplitude =  0.2542 beta
    D(  160) --> S(    1) amplitude =  0.6382 beta
    D(  160) --> S(    2) amplitude = -0.5359 beta

 Excited state   3: excitation energy (eV) =    1.3776
 Total energy for state  3:                 -3318.00065467 au
    <S**2>     :  4.2109
    Trans. Mom.:  0.0837 X   0.0036 Y   0.1429 Z
    Strength   :     0.0009265083
    D(  159) --> V(    1) amplitude = -0.1501 alpha
    S(    1) --> V(    1) amplitude = -0.1561 alpha
    S(    2) --> V(    1) amplitude =  0.7478 alpha
    S(    3) --> V(    1) amplitude =  0.2855 alpha
    D(  159) --> S(    2) amplitude = -0.1617 beta
    D(  160) --> S(    2) amplitude =  0.3031 beta
    D(  160) --> V(    1) amplitude =  0.2375 beta

 Excited state   4: excitation energy (eV) =    1.3916
 Total energy for state  4:                 -3318.00013990 au
    <S**2>     :  5.1290
    Trans. Mom.: -0.1868 X   0.0628 Y  -0.0599 Z
    Strength   :     0.0014464430
    D(  147) --> V(    1) amplitude =  0.2380 alpha
    D(  151) --> V(    1) amplitude = -0.1731 alpha
    D(  154) --> V(    1) amplitude =  0.1892 alpha
    D(  157) --> V(    1) amplitude =  0.2479 alpha
    D(  159) --> V(    1) amplitude = -0.3628 alpha
    S(    1) --> V(    1) amplitude =  0.1757 alpha
    S(    2) --> V(    1) amplitude = -0.4080 alpha
    S(    3) --> V(    1) amplitude =  0.2656 alpha
    D(  159) --> V(    1) amplitude = -0.2284 beta
    D(  160) --> S(    2) amplitude = -0.1540 beta
    D(  160) --> S(    3) amplitude =  0.1543 beta
    D(  160) --> V(    1) amplitude =  0.4274 beta

 Excited state   5: excitation energy (eV) =    1.7126
 Total energy for state  5:                 -3317.98834372 au
    <S**2>     :  4.3135
    Trans. Mom.: -0.3475 X   0.0611 Y   0.0612 Z
    Strength   :     0.0053795838
    D(  159) --> V(    1) amplitude =  0.1690 alpha
    D(  160) --> V(    1) amplitude = -0.2911 alpha
    S(    1) --> V(    1) amplitude =  0.1944 alpha
    S(    3) --> V(    1) amplitude =  0.8072 alpha
    D(  160) --> S(    3) amplitude = -0.2278 beta
    D(  160) --> V(    1) amplitude = -0.1865 beta

 Excited state   6: excitation energy (eV) =    1.8694
 Total energy for state  6:                 -3317.98258002 au
    <S**2>     :  4.3046
    Trans. Mom.: -0.0458 X  -0.0296 Y   0.0933 Z
    Strength   :     0.0005352680
    S(    1) --> V(    1) amplitude =  0.9033 alpha
    S(    2) --> V(    1) amplitude =  0.2809 alpha

 Excited state   7: excitation energy (eV) =    1.9860
 Total energy for state  7:                 -3317.97829616 au
    <S**2>     :  3.9359
    Trans. Mom.: -0.1170 X  -0.0036 Y   0.0217 Z
    Strength   :     0.0006893502
    D(  160) --> V(    1) amplitude =  0.2035 alpha
    S(    3) --> V(    1) amplitude =  0.2566 alpha
    D(  159) --> S(    3) amplitude = -0.3352 beta
    D(  159) --> V(    1) amplitude =  0.1864 beta
    D(  160) --> S(    3) amplitude =  0.6911 beta
    D(  160) --> V(    1) amplitude = -0.3698 beta

 Excited state   8: excitation energy (eV) =    2.2092
 Total energy for state  8:                 -3317.97009391 au
    <S**2>     :  4.0794
    Trans. Mom.:  0.0320 X  -0.0603 Y   0.1167 Z
    Strength   :     0.0009897444
    D(  159) --> V(    1) amplitude = -0.3145 alpha
    D(  160) --> V(    1) amplitude =  0.7019 alpha
    D(  159) --> S(    3) amplitude =  0.1956 beta
    D(  159) --> V(    1) amplitude =  0.1515 beta
    D(  160) --> S(    2) amplitude =  0.2030 beta
    D(  160) --> S(    3) amplitude = -0.3506 beta
    D(  160) --> V(    1) amplitude = -0.2291 beta

 Excited state   9: excitation energy (eV) =    2.3311
 Total energy for state  9:                 -3317.96561296 au
    <S**2>     :  4.1159
    Trans. Mom.:  0.0622 X  -0.1307 Y   0.1328 Z
    Strength   :     0.0022033740
    D(  147) --> V(    1) amplitude = -0.2151 alpha
    D(  151) --> V(    1) amplitude =  0.1775 alpha
    D(  154) --> V(    1) amplitude = -0.2304 alpha
    D(  157) --> V(    1) amplitude = -0.2906 alpha
    D(  158) --> V(    1) amplitude = -0.1683 alpha
    D(  159) --> V(    1) amplitude =  0.3039 alpha
    D(  160) --> V(    1) amplitude =  0.3703 alpha
    S(    3) --> V(    1) amplitude =  0.1658 alpha
    D(  159) --> S(    1) amplitude =  0.3210 beta
    D(  159) --> V(    1) amplitude = -0.1846 beta
    D(  160) --> S(    1) amplitude =  0.3015 beta
    D(  160) --> V(    1) amplitude =  0.4192 beta

 Excited state  10: excitation energy (eV) =    2.4393
 Total energy for state 10:                 -3317.96163895 au
    <S**2>     :  3.8414
    Trans. Mom.:  0.4422 X   0.0493 Y  -0.0570 Z
    Strength   :     0.0120231999
    D(  159) --> V(    1) amplitude = -0.1736 alpha
    S(    3) --> V(    1) amplitude = -0.1530 alpha
    D(  159) --> S(    1) amplitude =  0.7350 beta
    D(  159) --> S(    2) amplitude = -0.3256 beta
    D(  160) --> S(    1) amplitude =  0.3454 beta
    D(  160) --> V(    1) amplitude = -0.1680 beta

 Excited state  11: excitation energy (eV) =    2.6032
 Total energy for state 11:                 -3317.95561484 au
    <S**2>     :  3.8920
    Trans. Mom.:  0.6527 X   0.1909 Y  -0.1462 Z
    Strength   :     0.0308578266
    D(  160) --> V(    1) amplitude = -0.1641 alpha
    D(  159) --> S(    1) amplitude =  0.3166 beta
    D(  159) --> S(    2) amplitude =  0.7771 beta
    D(  160) --> S(    2) amplitude =  0.4093 beta

 Excited state  12: excitation energy (eV) =    2.8174
 Total energy for state 12:                 -3317.94774055 au
    <S**2>     :  3.8684
    Trans. Mom.: -0.1378 X  -0.0233 Y   0.0902 Z
    Strength   :     0.0019095518
    D(  158) --> S(    1) amplitude =  0.1700 beta
    D(  158) --> S(    2) amplitude =  0.9456 beta

 Excited state  13: excitation energy (eV) =    2.8452
 Total energy for state 13:                 -3317.94672071 au
    <S**2>     :  3.9303
    Trans. Mom.:  0.3836 X  -0.4890 Y   0.4255 Z
    Strength   :     0.0395475090
    D(  158) --> S(    1) amplitude =  0.8879 beta
    D(  158) --> S(    2) amplitude = -0.1724 beta
    D(  159) --> S(    1) amplitude =  0.1837 beta
    D(  159) --> S(    2) amplitude = -0.1998 beta

 Excited state  14: excitation energy (eV) =    2.9553
 Total energy for state 14:                 -3317.94267519 au
    <S**2>     :  4.6342
    Trans. Mom.: -0.0975 X   0.1948 Y  -0.0533 Z
    Strength   :     0.0036408771
    D(  150) --> V(    1) amplitude =  0.1938 alpha
    D(  151) --> V(    1) amplitude =  0.4652 alpha
    D(  152) --> V(    1) amplitude =  0.3022 alpha
    D(  153) --> V(    1) amplitude =  0.2933 alpha
    D(  154) --> V(    1) amplitude = -0.4056 alpha
    D(  159) --> V(    1) amplitude = -0.4612 alpha
    D(  160) --> V(    1) amplitude = -0.2349 alpha

 Excited state  15: excitation energy (eV) =    3.1531
 Total energy for state 15:                 -3317.93540655 au
    <S**2>     :  4.7223
    Trans. Mom.: -0.0608 X   0.1097 Y  -0.0325 Z
    Strength   :     0.0012964504
    D(  147) --> V(    1) amplitude =  0.1704 alpha
    D(  151) --> V(    1) amplitude =  0.2748 alpha
    D(  157) --> V(    1) amplitude =  0.4815 alpha
    D(  158) --> V(    1) amplitude =  0.5600 alpha
    D(  159) --> V(    1) amplitude =  0.4542 alpha
    D(  160) --> V(    1) amplitude =  0.2181 alpha

 Excited state  16: excitation energy (eV) =    3.1922
 Total energy for state 16:                 -3317.93396999 au
    <S**2>     :  4.7557
    Trans. Mom.:  0.0323 X   0.0122 Y  -0.0196 Z
    Strength   :     0.0001231105
    D(  157) --> V(    1) amplitude = -0.5733 alpha
    D(  158) --> V(    1) amplitude =  0.7440 alpha
    D(  159) --> V(    1) amplitude = -0.3039 alpha

 Excited state  17: excitation energy (eV) =    3.2805
 Total energy for state 17:                 -3317.93072268 au
    <S**2>     :  4.6992
    Trans. Mom.: -0.0727 X  -0.2513 Y   0.2225 Z
    Strength   :     0.0094778170
    D(  147) --> V(    1) amplitude =  0.6777 alpha
    D(  150) --> V(    1) amplitude =  0.2187 alpha
    D(  156) --> V(    1) amplitude =  0.1878 alpha
    D(  157) --> V(    1) amplitude = -0.4201 alpha
    D(  155) --> S(    1) amplitude = -0.1608 beta

 Excited state  18: excitation energy (eV) =    3.3948
 Total energy for state 18:                 -3317.92652438 au
    <S**2>     :  4.7398
    Trans. Mom.:  0.0340 X   0.1052 Y  -0.0855 Z
    Strength   :     0.0016249382
    D(  147) --> V(    1) amplitude = -0.2228 alpha
    D(  153) --> V(    1) amplitude =  0.2385 alpha
    D(  154) --> V(    1) amplitude =  0.3132 alpha
    D(  155) --> V(    1) amplitude =  0.2068 alpha
    D(  156) --> V(    1) amplitude =  0.8121 alpha

 Excited state  19: excitation energy (eV) =    3.4198
 Total energy for state 19:                 -3317.92560562 au
    <S**2>     :  4.7558
    Trans. Mom.: -0.0088 X   0.0104 Y  -0.0036 Z
    Strength   :     0.0000165662
    D(  155) --> V(    1) amplitude =  0.9643 alpha
    D(  156) --> V(    1) amplitude = -0.2508 alpha

 Excited state  20: excitation energy (eV) =    3.4425
 Total energy for state 20:                 -3317.92476871 au
    <S**2>     :  4.7528
    Trans. Mom.:  0.0096 X   0.0740 Y  -0.0306 Z
    Strength   :     0.0005482156
    D(  151) --> V(    1) amplitude =  0.1564 alpha
    D(  153) --> V(    1) amplitude =  0.4911 alpha
    D(  154) --> V(    1) amplitude =  0.6919 alpha
    D(  156) --> V(    1) amplitude = -0.4503 alpha

 Excited state  21: excitation energy (eV) =    3.4976
 Total energy for state 21:                 -3317.92274631 au
    <S**2>     :  4.7204
    Trans. Mom.:  0.0151 X  -0.0866 Y   0.0790 Z
    Strength   :     0.0011972523
    D(  151) --> V(    1) amplitude = -0.3767 alpha
    D(  152) --> V(    1) amplitude = -0.3433 alpha
    D(  153) --> V(    1) amplitude =  0.7280 alpha
    D(  154) --> V(    1) amplitude = -0.2945 alpha

 Excited state  22: excitation energy (eV) =    3.5771
 Total energy for state 22:                 -3317.91982352 au
    <S**2>     :  4.0879
    Trans. Mom.: -0.0463 X  -0.1839 Y   0.1439 Z
    Strength   :     0.0049643927
    D(  150) --> V(    1) amplitude =  0.2652 alpha
    D(  151) --> V(    1) amplitude = -0.1504 alpha
    D(  151) --> S(    1) amplitude =  0.2800 beta
    D(  153) --> S(    1) amplitude =  0.1526 beta
    D(  155) --> S(    1) amplitude =  0.4979 beta
    D(  157) --> S(    1) amplitude =  0.5845 beta

 Excited state  23: excitation energy (eV) =    3.6162
 Total energy for state 23:                 -3317.91838826 au
    <S**2>     :  4.1109
    Trans. Mom.:  0.0773 X   0.0562 Y  -0.0341 Z
    Strength   :     0.0009120382
    D(  159) --> S(    3) amplitude =  0.8270 beta
    D(  160) --> S(    3) amplitude =  0.4508 beta

 Excited state  24: excitation energy (eV) =    3.6222
 Total energy for state 24:                 -3317.91816766 au
    <S**2>     :  4.7381
    Trans. Mom.:  0.0054 X  -0.0220 Y  -0.0365 Z
    Strength   :     0.0001640114
    D(  151) --> V(    1) amplitude = -0.5197 alpha
    D(  152) --> V(    1) amplitude =  0.8092 alpha

 Excited state  25: excitation energy (eV) =    3.6659
 Total energy for state 25:                 -3317.91656148 au
    <S**2>     :  4.5054
    Trans. Mom.:  0.1122 X  -0.0099 Y  -0.1864 Z
    Strength   :     0.0042595876
    D(  146) --> V(    1) amplitude = -0.2715 alpha
    D(  150) --> V(    1) amplitude =  0.7203 alpha
    D(  151) --> V(    1) amplitude = -0.1728 alpha
    D(  151) --> S(    2) amplitude =  0.1581 beta
    D(  155) --> S(    2) amplitude =  0.2879 beta
    D(  157) --> S(    1) amplitude = -0.2106 beta
    D(  157) --> S(    2) amplitude =  0.2768 beta

 Excited state  26: excitation energy (eV) =    3.7425
 Total energy for state 26:                 -3317.91374500 au
    <S**2>     :  4.0923
    Trans. Mom.:  0.0680 X  -0.3033 Y   0.1913 Z
    Strength   :     0.0122130924
    D(  150) --> V(    1) amplitude = -0.3517 alpha
    D(  148) --> S(    1) amplitude = -0.1577 beta
    D(  149) --> S(    1) amplitude =  0.2384 beta
    D(  155) --> S(    2) amplitude =  0.4377 beta
    D(  157) --> S(    1) amplitude =  0.3191 beta
    D(  157) --> S(    2) amplitude =  0.5172 beta

 Excited state  27: excitation energy (eV) =    3.7741
 Total energy for state 27:                 -3317.91258294 au
    <S**2>     :  4.3100
    Trans. Mom.:  0.0653 X   0.0547 Y  -0.0216 Z
    Strength   :     0.0007139246
    S(    1) --> V(    7) amplitude =  0.1518 alpha
    D(  148) --> S(    1) amplitude =  0.1714 beta
    D(  149) --> S(    1) amplitude = -0.2751 beta
    D(  150) --> S(    1) amplitude =  0.1697 beta
    D(  151) --> S(    1) amplitude = -0.2882 beta
    D(  156) --> S(    1) amplitude =  0.4839 beta
    D(  157) --> S(    1) amplitude =  0.4037 beta
    D(  158) --> S(    3) amplitude = -0.2522 beta

 Excited state  28: excitation energy (eV) =    3.7785
 Total energy for state 28:                 -3317.91242272 au
    <S**2>     :  4.6725
    Trans. Mom.: -0.0849 X   0.1066 Y  -0.0818 Z
    Strength   :     0.0023389929
    D(  150) --> V(    1) amplitude =  0.1902 alpha
    S(    1) --> V(    7) amplitude = -0.2042 alpha
    D(  151) --> S(    1) amplitude = -0.2196 beta
    D(  155) --> S(    1) amplitude = -0.2577 beta
    D(  157) --> S(    1) amplitude =  0.4509 beta
    D(  158) --> S(    3) amplitude =  0.2819 beta
    D(  158) --> V(    7) amplitude = -0.1541 beta
    D(  158) --> V(    8) amplitude =  0.1537 beta

 Excited state  29: excitation energy (eV) =    3.7893
 Total energy for state 29:                 -3317.91202589 au
    <S**2>     :  4.2085
    Trans. Mom.: -0.0402 X  -0.0924 Y   0.0264 Z
    Strength   :     0.0010064607
    D(  150) --> V(    1) amplitude = -0.1511 alpha
    D(  155) --> S(    1) amplitude =  0.2102 beta
    D(  156) --> S(    1) amplitude =  0.7343 beta
    D(  157) --> S(    1) amplitude = -0.2435 beta
    D(  158) --> S(    3) amplitude =  0.1899 beta

 Excited state  30: excitation energy (eV) =    3.8197
 Total energy for state 30:                 -3317.91090778 au
    <S**2>     :  4.0892
    Trans. Mom.: -0.0379 X  -0.0294 Y   0.1090 Z
    Strength   :     0.0013269983
    D(  145) --> V(    1) amplitude =  0.2181 alpha
    D(  146) --> V(    1) amplitude =  0.2981 alpha
    D(  148) --> S(    1) amplitude = -0.2974 beta
    D(  149) --> S(    1) amplitude =  0.4190 beta
    D(  150) --> S(    1) amplitude = -0.2218 beta
    D(  151) --> S(    1) amplitude =  0.3136 beta
    D(  154) --> S(    1) amplitude = -0.1575 beta
    D(  156) --> S(    1) amplitude =  0.4136 beta

 Excited state  31: excitation energy (eV) =    3.8385
 Total energy for state 31:                 -3317.91021593 au
    <S**2>     :  4.3618
    Trans. Mom.: -0.0896 X  -0.0753 Y   0.1741 Z
    Strength   :     0.0041364271
    D(  145) --> V(    1) amplitude =  0.2475 alpha
    D(  146) --> V(    1) amplitude =  0.4906 alpha
    D(  149) --> V(    1) amplitude = -0.1865 alpha
    D(  151) --> V(    1) amplitude = -0.1600 alpha
    D(  148) --> S(    1) amplitude =  0.1562 beta
    D(  149) --> S(    1) amplitude = -0.2677 beta
    D(  155) --> S(    1) amplitude =  0.4265 beta
    D(  156) --> S(    1) amplitude = -0.1631 beta
    D(  157) --> S(    1) amplitude = -0.1838 beta
    D(  157) --> S(    2) amplitude =  0.2809 beta

 Excited state  32: excitation energy (eV) =    3.8418
 Total energy for state 32:                 -3317.91009450 au
    <S**2>     :  5.4452
    Trans. Mom.: -0.0341 X   0.0194 Y   0.0018 Z
    Strength   :     0.0001452138
    S(    3) --> V(    9) amplitude =  0.2973 alpha
    S(    3) --> V(   10) amplitude = -0.2854 alpha
    S(    3) --> V(   12) amplitude =  0.2637 alpha
    S(    3) --> V(   13) amplitude = -0.2500 alpha
    S(    3) --> V(   14) amplitude =  0.1540 alpha
    D(  159) --> S(    3) amplitude = -0.1770 beta
    D(  159) --> V(    1) amplitude = -0.2606 beta
    D(  159) --> V(    9) amplitude = -0.1508 beta
    D(  159) --> V(   10) amplitude =  0.1708 beta
    D(  159) --> V(   12) amplitude =  0.1542 beta
    D(  159) --> V(   13) amplitude = -0.1615 beta
    D(  160) --> V(    1) amplitude = -0.1790 beta
    D(  160) --> V(    9) amplitude = -0.2363 beta
    D(  160) --> V(   10) amplitude =  0.2066 beta
    D(  160) --> V(   12) amplitude =  0.1895 beta
    D(  160) --> V(   13) amplitude = -0.2139 beta

 Excited state  33: excitation energy (eV) =    3.9190
 Total energy for state 33:                 -3317.90726063 au
    <S**2>     :  4.3382
    Trans. Mom.: -0.1018 X   0.0865 Y  -0.0637 Z
    Strength   :     0.0021032333
    D(  145) --> V(    1) amplitude =  0.2075 alpha
    D(  146) --> V(    1) amplitude = -0.3193 alpha
    D(  148) --> V(    1) amplitude = -0.3289 alpha
    D(  149) --> V(    1) amplitude =  0.3122 alpha
    D(  149) --> S(    2) amplitude =  0.2051 beta
    D(  155) --> S(    2) amplitude = -0.3140 beta
    D(  156) --> S(    2) amplitude = -0.2167 beta
    D(  157) --> S(    2) amplitude =  0.4284 beta
    D(  158) --> S(    3) amplitude =  0.1576 beta

 Excited state 100: excitation energy (eV) =    4.7452

                    Orbital Energies (a.u.)
 --------------------------------------------------------------

 Alpha MOs
 -- Occupied --
******** -29.9088 -25.7518 -25.7403 -25.7274 -19.0608 -19.0503 -19.0452
-19.0450 -19.0385 -19.0308 -19.0287 -19.0284 -19.0260 -19.0142 -19.0139
-19.0109 -19.0094 -14.3370 -14.3259 -14.2680 -14.2668 -10.2128 -10.2110
-10.2078 -10.2059 -10.2001 -10.1995 -10.1986 -10.1686 -10.1560 -10.1505
-10.1448 -10.1445 -10.1278 -10.1168 -10.1163 -10.1147 -10.1134 -10.1089
-10.1076 -10.1042 -10.1025 -10.0983  -3.4654  -2.2684  -2.2323  -2.2119
 -1.0512  -1.0370  -1.0224  -1.0032  -1.0018  -0.9962  -0.9943  -0.9812
 -0.9681  -0.9453  -0.9267  -0.9155  -0.9149  -0.8864  -0.8831  -0.8267
 -0.8191  -0.7701  -0.7667  -0.7490  -0.7332  -0.7228  -0.7049  -0.6967
 -0.6873  -0.6661  -0.6556  -0.6181  -0.6087  -0.5923  -0.5679  -0.5636
 -0.5352  -0.5322  -0.5222  -0.5116  -0.5073  -0.5013  -0.4917  -0.4839
 -0.4753  -0.4690  -0.4675  -0.4637  -0.4537  -0.4506  -0.4489  -0.4475
 -0.4407  -0.4379  -0.4299  -0.4271  -0.4225  -0.4182  -0.4135  -0.4102
 -0.4058  -0.4019  -0.3981  -0.3923  -0.3911  -0.3865  -0.3859  -0.3835
 -0.3807  -0.3800  -0.3790  -0.3752  -0.3721  -0.3688  -0.3676  -0.3649
 -0.3613  -0.3546  -0.3520  -0.3510  -0.3484  -0.3458  -0.3409  -0.3344
 -0.3313  -0.3262  -0.3213  -0.3185  -0.3128  -0.3067  -0.3046  -0.3042
 -0.3015  -0.3002  -0.2965  -0.2942  -0.2914  -0.2862  -0.2796  -0.2638
 -0.2604  -0.2518  -0.2438  -0.2403  -0.2403  -0.2346  -0.2309  -0.2285
 -0.2245  -0.2233  -0.2204  -0.2201  -0.2128  -0.2118  -0.2092  -0.2046
 -0.1820  -0.1752  -0.1731

 Beta MOs
 -- Occupied --
******** -29.8563 -25.7058 -25.6952 -25.6861 -19.0605 -19.0465 -19.0443
-19.0427 -19.0363 -19.0309 -19.0287 -19.0284 -19.0260 -19.0142 -19.0139
-19.0109 -19.0094 -14.3369 -14.3257 -14.2680 -14.2668 -10.2129 -10.2111
-10.2078 -10.2059 -10.2002 -10.1995 -10.1986 -10.1686 -10.1560 -10.1504
-10.1448 -10.1445 -10.1278 -10.1166 -10.1162 -10.1147 -10.1134 -10.1089
-10.1076 -10.1042 -10.1025 -10.0982  -3.3327  -2.1259  -2.0957  -2.0796
 -1.0488  -1.0347  -1.0218  -1.0032  -1.0018  -0.9962  -0.9943  -0.9792
 -0.9646  -0.9452  -0.9261  -0.9155  -0.9149  -0.8864  -0.8831  -0.8236
 -0.8170  -0.7700  -0.7665  -0.7490  -0.7331  -0.7227  -0.7045  -0.6962
 -0.6868  -0.6659  -0.6554  -0.6179  -0.6085  -0.5922  -0.5676  -0.5633
 -0.5351  -0.5321  -0.5205  -0.5111  -0.5059  -0.5007  -0.4903  -0.4832
 -0.4737  -0.4675  -0.4655  -0.4618  -0.4530  -0.4500  -0.4477  -0.4468
 -0.4402  -0.4372  -0.4295  -0.4268  -0.4218  -0.4178  -0.4126  -0.4097
 -0.4054  -0.4010  -0.3972  -0.3916  -0.3905  -0.3857  -0.3850  -0.3822
 -0.3797  -0.3788  -0.3777  -0.3735  -0.3711  -0.3678  -0.3669  -0.3634
 -0.3599  -0.3536  -0.3515  -0.3493  -0.3464  -0.3436  -0.3400  -0.3340
 -0.3284  -0.3241  -0.3113  -0.3078  -0.3054  -0.3039  -0.3015  -0.2981
 -0.2944  -0.2935  -0.2863  -0.2780  -0.2720  -0.2620  -0.2614  -0.2549
 -0.2460  -0.2404  -0.2401  -0.2369  -0.2296  -0.2288  -0.2280  -0.2243
 -0.2205  -0.2201  -0.2182  -0.2119  -0.2100  -0.1893  -0.1778  -0.1641

          Ground-State Mulliken Net Atomic Charges

     Atom                 Charge (a.u.)    Spin (a.u.)
  --------------------------------------------------------
      1 N                     0.741303       0.002305
      2 C                     0.627683      -0.001186
      3 H                    -0.348513      -0.000032
      4 N                     0.138321       0.000652
      5 H                    -0.002470       0.000683
      6 C                     1.117726       0.000073
      7 O                    -0.893750      -0.000010
      8 C                     0.340211       0.002453
      9 O                    -0.874314      -0.000492
     10 C                    -0.734353      -0.003161
     11 C                     0.852612      -0.002926
     12 H                     0.030119      -0.001027
     13 H                     0.036944       0.000137
     14 H                    -0.380541      -0.000307
     15 C                     0.929081      -0.002216
     16 H                    -0.387588      -0.002392
     17 H                    -0.214367      -0.000223
     18 C                    -0.077462       0.025169
     19 C                     0.989772      -0.007196
     20 C                     0.639808       0.008575
     21 H                    -0.310952       0.000850
     22 H                    -0.606571       0.003050
     23 C                     0.521023      -0.002661
     24 O                    -0.890624       0.000103
     25 N                     0.283506       0.000277
     26 H                     0.079579       0.000133
     27 C                     1.082562       0.000054
     28 O                    -0.948905       0.000007
     29 N                     0.722494       0.018278
     30 C                    -0.737612      -0.018974
     31 C                     1.396471       0.003273
     32 H                    -0.327397       0.000606
     33 H                    -0.232187      -0.000293
     34 H                    -0.085236      -0.000695
     35 C                     0.680352      -0.001293
     36 H                    -0.510540       0.000918
     37 H                    -0.375089       0.000213
     38 C                     1.010712      -0.000443
     39 H                    -0.280468       0.000438
     40 H                    -0.687743      -0.001015
     41 C                     0.961936       0.000929
     42 H                    -0.542692       0.005134
     43 H                    -0.411187      -0.000065
     44 C                     0.711679      -0.000133
     45 H                    -0.198711      -0.000000
     46 H                    -0.371340       0.000021
     47 C                     0.556581       0.000017
     48 H                    -0.465406       0.000012
     49 C                     0.793215      -0.000198
     50 H                    -0.375938      -0.000307
     51 H                    -0.335991      -0.000298
     52 C                     0.831868       0.000280
     53 H                    -0.450853       0.001200
     54 H                    -0.432176       0.001078
     55 C                     1.033403      -0.003473
     56 H                    -0.590942      -0.003803
     57 H                    -0.321397       0.000199
     58 C                     0.424000       0.003997
     59 H                    -0.304006       0.000696
     60 H                    -0.396899       0.000144
     61 O                    -0.881918       0.000020
     62 O                    -0.897044       0.000052
     63 O                    -0.797492      -0.015781
     64 Fe                    2.396318       2.715384
     65 O                    -0.905816       0.018785
     66 O                    -0.760772       0.130081
     67 O                    -0.680259       0.007270
     68 O                    -1.180703       0.064640
     69 O                    -0.906848      -0.001972
     70 O                    -0.814206       0.054387
  --------------------------------------------------------
  Sum of atomic charges =    -3.000000

                    Cartesian Multipole Moments
 -----------------------------------------------------------------
    Charge (ESU x 10^10)
               -14.4096
    Dipole Moment (Debye)
         X      -1.5203      Y      23.4082      Z      -4.4609
       Tot      23.8780
    Quadrupole Moments (Debye-Ang)
        XX    -502.0532     XY     -43.3873     YY    -319.4344
        XZ      -8.0791     YZ     -47.0646     ZZ    -326.2584

 Total job time:  192790.13s(wall), 2771876.34s(cpu)
        *  Thank you very much for using Q-Chem.  Have a nice day.  *
