 Q-Chem 6.0, Q-Chem, Inc., Pleasanton, CA (2022)
 Q-Chem 6.0.2 for Intel X86 EM64T Linux

User input:
--------------------------------------------------------------
$molecule
-3 6
N   -2.4975600    2.6088570   -0.7487940
C   -4.4232520   -2.3585430   -0.1703010
H   -4.9664470   -2.9405750    0.5902580
N   -2.9918200   -2.3855470    0.1543420
H   -2.4562330   -2.8609470   -0.5705620
C   -4.6037490   -3.0995860   -1.5291730
O   -5.8016180   -3.1992180   -1.9661050
C   -2.4263810   -1.9710040    1.3105610
O   -3.0887730   -1.3818410    2.2195100
C   -2.0431190    3.6144800    0.0014300
C   -2.7868550    4.9172460    0.1052070
H   -2.8799780    5.4089350   -0.8692440
H   -3.7946590    4.7784850    0.5103640
H   -2.2303930    5.5743290    0.7741780
C   -0.9577680   -2.3264210    1.5089550
H   -0.5909880   -2.9766990    0.7112200
H   -0.9067660   -2.8883020    2.4494660
C    0.0356080   -1.1356240    1.6217410
C   -0.3938260   -0.1488060    2.7452010
C    1.4549300   -1.6660450    2.0182870
H    1.3536610   -2.3725150    2.8491720
H    2.0421550   -0.8168890    2.3825460
C    2.1939200   -2.3394890    0.8729720
O    1.7526500   -3.3782780    0.2934050
N    3.3649140   -1.7584430    0.5287760
H    3.7502600   -0.9763000    1.0528450
C    5.6452940   -1.5096280   -0.2931120
O    6.6100450   -1.8981020   -1.0333580
N    2.4007850    2.0889700   -1.0222420
C    2.7347040    2.2636510    0.2550130
C    4.1520440    2.5267180    0.6692690
H    4.1392810    3.0529730    1.6258790
H    4.6991930    1.5823530    0.7968880
H    4.6928040    3.1342930   -0.0615870
C    3.2933570    1.9460380   -2.1867260
H    2.6444340    2.0713980   -3.0560120
H    4.0169940    2.7683000   -2.1836200
C    4.0193920    0.5869730   -2.2114710
H    4.6660530    0.5651560   -3.1001350
H    4.6791830    0.5332620   -1.3405010
C    3.0606450   -0.6198230   -2.2173590
H    2.2844140   -0.4654720   -1.4596550
H    2.5431500   -0.6591880   -3.1873600
C    3.7231460   -1.9887570   -1.9612080
H    2.9755350   -2.7675070   -2.1532010
H    4.5583110   -2.1600330   -2.6522770
C    4.2748030   -2.2107760   -0.5212570
H    4.4465500   -3.2894630   -0.4065880
C   -4.7429590    1.5033020   -0.9207280
H   -4.8162660    1.6963000    0.1589310
H   -5.7352160    1.7152350   -1.3430550
C   -3.7454250    2.5173790   -1.5190270
H   -4.1855710    3.5164230   -1.5516230
H   -3.4740500    2.2350780   -2.5425650
C   -4.3595720    0.0267170   -1.1633330
H   -3.2783280   -0.0637860   -1.0387820
H   -4.5924520   -0.2451170   -2.2034090
C   -5.0518850   -0.9444230   -0.1953820
H   -4.9970230   -0.5395630    0.8210600
H   -6.1107080   -1.0703560   -0.4521150
O   -3.5370010   -3.5543540   -2.0939230
O    5.6949400   -0.5912770    0.6175580
O    0.1252370   -0.4158220    0.3949850
Fe   -0.0681860    1.4869600    0.3850730
O   -0.6087150    1.0857690    2.3262360
O   -1.7088920    1.4407770   -0.7483740
O   -0.9243260    3.4352650    0.6383320
O    1.0294480    1.8530080   -1.2747030
O   -0.4507160   -0.5194540    3.9458500
O    1.7881450    2.1761360    1.1475450
$end

$rem
BASIS  =  gen
DFT_D  =  D3_BJ
GUI  =  2
JOB_TYPE  =  Optimization
METHOD  =  B3LYP
BASIS GEN
PURECART 11
SCF_CONVERGENCE  =  8
SOLVENT_METHOD  =  PCM
$end

$pcm
THEORY  CPCM
$end

$solvent
DIELECTRIC  78.39
$end

$van_der_waals
26   2.44
$end

$basis
H     0
S   4   1.00
1.301000D+01           1.968500D-02
1.962000D+00           1.379770D-01
4.446000D-01           4.781480D-01
1.220000D-01           5.012400D-01
S   1   1.00
1.220000D-01           1.000000D+00
P   1   1.00
7.270000D-01           1.0000000
****
C     0
S   9   1.00
6.665000D+03           6.920000D-04
1.000000D+03           5.329000D-03
2.280000D+02           2.707700D-02
6.471000D+01           1.017180D-01
2.106000D+01           2.747400D-01
7.495000D+00           4.485640D-01
2.797000D+00           2.850740D-01
5.215000D-01           1.520400D-02
1.596000D-01          -3.191000D-03
S   9   1.00
6.665000D+03          -1.460000D-04
1.000000D+03          -1.154000D-03
2.280000D+02          -5.725000D-03
6.471000D+01          -2.331200D-02
2.106000D+01          -6.395500D-02
7.495000D+00          -1.499810D-01
2.797000D+00          -1.272620D-01
5.215000D-01           5.445290D-01
1.596000D-01           5.804960D-01
S   1   1.00
1.596000D-01           1.000000D+00
P   4   1.00
9.439000D+00           3.810900D-02
2.002000D+00           2.094800D-01
5.456000D-01           5.085570D-01
1.517000D-01           4.688420D-01
P   1   1.00
1.517000D-01           1.000000D+00
D   1   1.00
5.500000D-01           1.0000000
****
N     0
S   9   1.00
9.046000D+03           7.000000D-04
1.357000D+03           5.389000D-03
3.093000D+02           2.740600D-02
8.773000D+01           1.032070D-01
2.856000D+01           2.787230D-01
1.021000D+01           4.485400D-01
3.838000D+00           2.782380D-01
7.466000D-01           1.544000D-02
2.248000D-01          -2.864000D-03
S   9   1.00
9.046000D+03          -1.530000D-04
1.357000D+03          -1.208000D-03
3.093000D+02          -5.992000D-03
8.773000D+01          -2.454400D-02
2.856000D+01          -6.745900D-02
1.021000D+01          -1.580780D-01
3.838000D+00          -1.218310D-01
7.466000D-01           5.490030D-01
2.248000D-01           5.788150D-01
S   1   1.00
2.248000D-01           1.000000D+00
P   4   1.00
1.355000D+01           3.991900D-02
2.917000D+00           2.171690D-01
7.973000D-01           5.103190D-01
2.185000D-01           4.622140D-01
P   1   1.00
2.185000D-01           1.000000D+00
D   1   1.00
8.170000D-01           1.0000000
****
O     0
S   9   1.00
1.172000D+04           7.100000D-04
1.759000D+03           5.470000D-03
4.008000D+02           2.783700D-02
1.137000D+02           1.048000D-01
3.703000D+01           2.830620D-01
1.327000D+01           4.487190D-01
5.025000D+00           2.709520D-01
1.013000D+00           1.545800D-02
3.023000D-01          -2.585000D-03
S   9   1.00
1.172000D+04          -1.600000D-04
1.759000D+03          -1.263000D-03
4.008000D+02          -6.267000D-03
1.137000D+02          -2.571600D-02
3.703000D+01          -7.092400D-02
1.327000D+01          -1.654110D-01
5.025000D+00          -1.169550D-01
1.013000D+00           5.573680D-01
3.023000D-01           5.727590D-01
S   1   1.00
3.023000D-01           1.000000D+00
P   4   1.00
1.770000D+01           4.301800D-02
3.854000D+00           2.289130D-01
1.046000D+00           5.087280D-01
2.753000D-01           4.605310D-01
P   1   1.00
2.753000D-01           1.000000D+00
D   1   1.00
1.185000D+00           1.0000000
****
Fe     0
S   20   1.00
4.316265D+06           8.048803D-06
6.463424D+05           6.258306D-05
1.470897D+05           3.290239D-04
4.166152D+04           1.387355D-03
1.359077D+04           5.023256D-03
4.905750D+03           1.610140D-02
1.912746D+03           4.590034D-02
7.926043D+02           1.136154D-01
3.448065D+02           2.283869D-01
1.558999D+02           3.221159D-01
7.223091D+01           2.383661D-01
3.272506D+01           7.404667D-02
1.566762D+01           9.214197D-02
7.503483D+00           9.339790D-02
3.312223D+00           1.573965D-02
1.558471D+00          -4.186682D-04
6.839140D-01           5.376318D-05
1.467570D-01          -3.816654D-05
7.058300D-02           4.319603D-05
3.144900D-02          -3.401019D-06
S   20   1.00
4.316265D+06          -4.155954D-06
6.463424D+05          -3.231401D-05
1.470897D+05          -1.699525D-04
4.166152D+04          -7.171369D-04
1.359077D+04          -2.603625D-03
4.905750D+03          -8.399109D-03
1.912746D+03          -2.434109D-02
7.926043D+02          -6.251948D-02
3.448065D+02          -1.365929D-01
1.558999D+02          -2.312707D-01
7.223091D+01          -2.383734D-01
3.272506D+01           3.123837D-02
1.566762D+01           5.086818D-01
7.503483D+00           4.987695D-01
3.312223D+00           9.033552D-02
1.558471D+00          -6.005337D-03
6.839140D-01           2.312454D-04
1.467570D-01          -5.643680D-04
7.058300D-02           4.992260D-04
3.144900D-02          -1.015293D-04
S   20   1.00
4.316265D+06           9.532178D-07
6.463424D+05           7.414605D-06
1.470897D+05           3.898393D-05
4.166152D+04           1.647152D-04
1.359077D+04           5.985980D-04
4.905750D+03           1.942390D-03
1.912746D+03           5.687237D-03
7.926043D+02           1.501329D-02
3.448065D+02           3.452455D-02
1.558999D+02           6.495820D-02
7.223091D+01           7.716194D-02
3.272506D+01          -1.873411D-02
1.566762D+01          -3.009185D-01
7.503483D+00          -4.554661D-01
3.312223D+00           1.286463D-01
1.558471D+00           7.183316D-01
6.839140D-01           4.051743D-01
1.467570D-01           2.168227D-02
7.058300D-02          -8.343566D-03
3.144900D-02           3.658979D-03
S   20   1.00
4.316265D+06          -2.063008D-07
6.463424D+05          -1.604169D-06
1.470897D+05          -8.438437D-06
4.166152D+04          -3.563151D-05
1.359077D+04          -1.295998D-04
4.905750D+03          -4.201534D-04
1.912746D+03          -1.231954D-03
7.926043D+02          -3.248922D-03
3.448065D+02          -7.493717D-03
1.558999D+02          -1.410102D-02
7.223091D+01          -1.691600D-02
3.272506D+01           4.218996D-03
1.566762D+01           6.833810D-02
7.503483D+00           1.098201D-01
3.312223D+00          -4.009005D-02
1.558471D+00          -2.174739D-01
6.839140D-01          -2.465135D-01
1.467570D-01           2.731435D-01
7.058300D-02           5.748321D-01
3.144900D-02           3.012713D-01
S   20   1.00
4.316265D+06          -4.009367D-07
6.463424D+05          -3.189255D-06
1.470897D+05          -1.623079D-05
4.166152D+04          -7.157920D-05

   20   -3317.9979396624      4.87e-09  Convergence criterion met
 Total energy in the final basis set =    -3317.9979396624
   16   -3318.0097003724      9.61e-09  Convergence criterion met
 Total energy in the final basis set =    -3318.0097003724
   16   -3318.0111710308      8.68e-09  Convergence criterion met
 Total energy in the final basis set =    -3318.0111710308
   16   -3318.0114142583      9.30e-09  Convergence criterion met
 Total energy in the final basis set =    -3318.0114142583
   16   -3318.0115108531      9.20e-09  Convergence criterion met
 Total energy in the final basis set =    -3318.0115108531
   16   -3318.0116000905      9.16e-09  Convergence criterion met
 Total energy in the final basis set =    -3318.0116000905
   16   -3318.0116971522      9.12e-09  Convergence criterion met
 Total energy in the final basis set =    -3318.0116971522
   16   -3318.0117767119      9.10e-09  Convergence criterion met
   17   -3318.0120548315      4.24e-09  Convergence criterion met
 Total energy in the final basis set =    -3318.0120548315
   17   -3318.0120569686      4.24e-09  Convergence criterion met
 Total energy in the final basis set =    -3318.0120569686
   17   -3318.0120586893      4.23e-09  Convergence criterion met
 Total energy in the final basis set =    -3318.0120586893
   17   -3318.0120600529      4.31e-09  Convergence criterion met
 Total energy in the final basis set =    -3318.0120600529
   17   -3318.0120612488      4.37e-09  Convergence criterion met
 Total energy in the final basis set =    -3318.0120612488
   17   -3318.0120623594      4.37e-09  Convergence criterion met
 Total energy in the final basis set =    -3318.0120623594
   17   -3318.0120633502      4.38e-09  Convergence criterion met
 Total energy in the final basis set =    -3318.0120633502

                    Orbital Energies (a.u.)
 --------------------------------------------------------------

 Alpha MOs
 -- Occupied --
******** -30.1190 -25.9730 -25.9706 -25.9689 -19.1221 -19.1216 -19.1198
-19.1184 -19.0980 -19.0883 -19.0852 -19.0794 -19.0780 -19.0632 -19.0583
-19.0568 -19.0517 -14.4019 -14.3992 -14.3254 -14.3233 -10.2804 -10.2765
-10.2658 -10.2631 -10.2616 -10.2492 -10.2450 -10.2195 -10.2183 -10.2157
-10.1961 -10.1946 -10.1898 -10.1820 -10.1765 -10.1714 -10.1711 -10.1666
-10.1660 -10.1641 -10.1611 -10.1583  -3.6011  -2.3791  -2.3742  -2.3709
 -1.0763  -1.0708  -1.0285  -1.0123  -1.0089  -1.0035  -1.0012  -0.9994
 -0.9969  -0.9539  -0.9356  -0.9171  -0.9128  -0.8960  -0.8915  -0.8492
 -0.8456  -0.7863  -0.7847  -0.7606  -0.7486  -0.7392  -0.7216  -0.7157
 -0.7039  -0.6816  -0.6697  -0.6333  -0.6226  -0.6005  -0.5807  -0.5769
 -0.5459  -0.5436  -0.5395  -0.5299  -0.5186  -0.5124  -0.5047  -0.4998
 -0.4958  -0.4922  -0.4869  -0.4759  -0.4709  -0.4649  -0.4591  -0.4571
 -0.4527  -0.4493  -0.4383  -0.4374  -0.4359  -0.4286  -0.4269  -0.4247
 -0.4214  -0.4180  -0.4161  -0.4097  -0.4077  -0.4049  -0.4001  -0.3985
 -0.3967  -0.3951  -0.3934  -0.3909  -0.3889  -0.3859  -0.3835  -0.3800
 -0.3782  -0.3744  -0.3703  -0.3694  -0.3671  -0.3641  -0.3617  -0.3596
 -0.3572  -0.3535  -0.3493  -0.3472  -0.3444  -0.3346  -0.3293  -0.3209
 -0.3198  -0.3189  -0.3173  -0.3154  -0.3091  -0.3057  -0.3024  -0.2972
 -0.2806  -0.2803  -0.2681  -0.2535  -0.2461  -0.2411  -0.2395  -0.2354
 -0.2296  -0.2274  -0.2261  -0.2217  -0.2202  -0.2190  -0.2155  -0.2087
 -0.2059  -0.2047  -0.1986  -0.1933

 Beta MOs
 -- Occupied --
******** -30.0264 -25.8947 -25.8936 -25.8925 -19.1189 -19.1170 -19.1169
-19.1137 -19.0948 -19.0883 -19.0851 -19.0775 -19.0726 -19.0632 -19.0583
-19.0568 -19.0517 -14.4016 -14.3991 -14.3254 -14.3233 -10.2805 -10.2765
-10.2658 -10.2631 -10.2616 -10.2492 -10.2450 -10.2195 -10.2182 -10.2156
-10.1961 -10.1946 -10.1897 -10.1819 -10.1765 -10.1714 -10.1709 -10.1665
-10.1659 -10.1641 -10.1611 -10.1583  -3.3854  -2.1489  -2.1478  -2.1459
 -1.0713  -1.0663  -1.0250  -1.0123  -1.0088  -1.0012  -0.9976  -0.9969
 -0.9934  -0.9446  -0.9278  -0.9171  -0.9128  -0.8960  -0.8914  -0.8443
 -0.8409  -0.7859  -0.7842  -0.7584  -0.7482  -0.7381  -0.7206  -0.7145
 -0.7033  -0.6811  -0.6693  -0.6327  -0.6220  -0.5990  -0.5800  -0.5760
 -0.5453  -0.5405  -0.5371  -0.5247  -0.5159  -0.5090  -0.5018  -0.4937
 -0.4890  -0.4859  -0.4834  -0.4683  -0.4677  -0.4626  -0.4575  -0.4549
 -0.4518  -0.4445  -0.4374  -0.4354  -0.4326  -0.4275  -0.4223  -0.4204
 -0.4154  -0.4138  -0.4070  -0.4045  -0.4010  -0.3988  -0.3944  -0.3927
 -0.3916  -0.3883  -0.3876  -0.3821  -0.3796  -0.3764  -0.3744  -0.3726
 -0.3665  -0.3638  -0.3622  -0.3578  -0.3551  -0.3527  -0.3472  -0.3442
 -0.3347  -0.3333  -0.3232  -0.3198  -0.3187  -0.3172  -0.3145  -0.3095
 -0.3055  -0.3016  -0.2944  -0.2902  -0.2806  -0.2766  -0.2703  -0.2633
 -0.2541  -0.2410  -0.2408  -0.2365  -0.2300  -0.2276  -0.2255  -0.2216
 -0.2191  -0.2156  -0.2147  -0.2085  -0.2057  -0.2012  -0.1905

          Ground-State Mulliken Net Atomic Charges

     Atom                 Charge (a.u.)    Spin (a.u.)
  --------------------------------------------------------
      1 N                    -0.025233       0.011193
      2 C                    -0.014741       0.000011
      3 H                    -0.010760       0.000001
      4 N                    -0.092693      -0.000037
      5 H                     0.075444      -0.000011
      6 C                     0.092868      -0.000003
      7 O                    -0.449924       0.000008
      8 C                     0.131369       0.000055
      9 O                    -0.376350       0.000385
     10 C                     0.125988       0.000598
     11 C                     0.020666       0.003191
     12 H                     0.069820       0.000094
     13 H                     0.068492       0.000092
     14 H                     0.043964       0.000285
     15 C                     0.134694       0.004297
     16 H                    -0.008826       0.000147
     17 H                     0.001834       0.001325
     18 C                    -0.064248       0.003727
     19 C                     0.209904       0.004526
     20 C                     0.117295       0.007115
     21 H                     0.010057       0.001306
     22 H                     0.002325       0.000221
     23 C                     0.142484      -0.000065
     24 O                    -0.375072       0.000299
     25 N                    -0.088702      -0.000121
     26 H                     0.096839      -0.000081
     27 C                     0.107381       0.000003
     28 O                    -0.435339       0.000025
     29 N                    -0.024363       0.007919
     30 C                     0.126620       0.004076
     31 C                     0.002647       0.003290
     32 H                     0.040323       0.000178
     33 H                     0.072349       0.000248
     34 H                     0.050780       0.000521
     35 C                     0.140371       0.001608
     36 H                     0.025900       0.000258
     37 H                     0.034685       0.000906
     38 C                    -0.036852       0.000375
     39 H                     0.003066       0.000492
     40 H                     0.022487       0.000057
     41 C                    -0.042689      -0.000171
     42 H                     0.073754       0.001218
     43 H                    -0.008140      -0.000021
     44 C                     0.049219       0.000127
     45 H                    -0.014288      -0.000018
     46 H                    -0.018172      -0.000012
     47 C                    -0.010266      -0.000007
     48 H                    -0.009258       0.000006
     49 C                    -0.003022       0.000070
     50 H                     0.011464       0.000036
     51 H                     0.011701       0.000028
     52 C                     0.131759       0.001790
     53 H                     0.032945       0.001840
     54 H                     0.027505       0.000857
     55 C                    -0.032256       0.001219
     56 H                     0.035985       0.000302
     57 H                    -0.007697       0.000050
     58 C                     0.052631       0.000066
     59 H                    -0.014959      -0.000003
     60 H                    -0.020421       0.000111
     61 O                    -0.444439      -0.000001
     62 O                    -0.429813       0.000036
     63 O                    -0.495766       0.217806
     64 Fe                    0.559764       4.164319
     65 O                    -0.395197       0.090806
     66 O                    -0.440671       0.157093
     67 O                    -0.367287       0.071269
     68 O                    -0.444000       0.138351
     69 O                    -0.385612       0.018354
     70 O                    -0.370324       0.075967
  --------------------------------------------------------
  Sum of atomic charges =    -3.000000

                    Cartesian Multipole Moments
 -----------------------------------------------------------------
    Charge (ESU x 10^10)
               -14.4096
    Dipole Moment (Debye)
         X      -0.0984      Y      23.0106      Z      -4.2742
       Tot      23.4044
    Quadrupole Moments (Debye-Ang)
        XX    -478.1953     XY     -36.8881     YY    -313.2557
        XZ      -9.8816     YZ     -43.4048     ZZ    -319.2174

 Final energy is -3318.012063350161
	**  OPTIMIZATION CONVERGED  **

             Standard Nuclear Orientation (Angstroms)
    I     Atom           X                Y                Z
 ----------------------------------------------------------------
    1      N      -2.4262102488     2.5604723041    -0.8388025091
    2      C      -4.3697263871    -2.3336988894    -0.1243507316
    3      H      -4.9163457271    -2.9093986528     0.6470412788
    4      N      -2.9499867929    -2.3379093692     0.2046549022
    5      H      -2.4124937108    -2.8745560551    -0.4769806243
    6      C      -4.5455961403    -3.0993933637    -1.4737687915
    7      O      -5.7154687411    -3.1484993439    -1.9280401736
    8      C      -2.4071864466    -1.9391830282     1.3721449778
    9      O      -3.0622167237    -1.3505364980     2.2496254802
   10      C      -2.0260629887     3.5569212418    -0.0511168618
   11      C      -2.8224129654     4.8326616304     0.0355602819
   12      H      -2.9682921296     5.2877820138    -0.9554896157
   13      H      -3.8154730464     4.6506222926     0.4749855049
   14      H      -2.2735847991     5.5343201883     0.6753001102
   15      C      -0.9430901043    -2.2984129966     1.5792449890
   16      H      -0.5813581283    -2.9897818202     0.8076472215
   17      H      -0.8907195871    -2.8071862961     2.5541621855
   18      C       0.0248566062    -1.0904763517     1.6136424959
   19      C      -0.4023025400    -0.0945765431     2.7302255553
   20      C       1.4595838582    -1.5656434232     1.9909155791
   21      H       1.4140663947    -2.2467806844     2.8538641285
   22      H       2.0406133750    -0.6806517777     2.2864484453
   23      C       2.1625088339    -2.2635353204     0.8394093170
   24      O       1.7302343944    -3.3027350923     0.3116677809
   25      N       3.2951585498    -1.6595202654     0.4289568502
   26      H       3.7112878309    -0.9028188354     0.9688633909
   27      C       5.5855269703    -1.5076207061    -0.4073525917
   28      O       6.4751313551    -1.8720256340    -1.2109803723
   29      N       2.3914870906     2.0758287861    -0.9324525316
   30      C       2.7142644082     2.1492393336     0.3542507775
   31      C       4.1437604356     2.3318264594     0.7774985685
   32      H       4.1514166246     2.7719597939     1.7833001316
   33      H       4.6598168793     1.3558947724     0.8110817614
   34      H       4.6994619653     2.9843751002     0.0899630317
   35      C       3.3172906415     1.9925212715    -2.0649954385
   36      H       2.7035037548     2.2093244957    -2.9495150303
   37      H       4.0716867787     2.7879088979    -1.9726641957
   38      C       3.9927288523     0.6221881072    -2.1631300235
   39      H       4.6786712576     0.6320796178    -3.0287325077
   40      H       4.6205965677     0.4922397655    -1.2721197568
   41      C       3.0007508724    -0.5398420200    -2.2649116925
   42      H       2.2018478723    -0.3838116625    -1.5239184832
   43      H       2.5126842207    -0.5208690601    -3.2557272457
   44      C       3.6132402570    -1.9260634376    -2.0320803434
   45      H       2.8324926362    -2.6821713354    -2.2133668124
   46      H       4.4345798704    -2.1257699277    -2.7395310176
   47      C       4.1798413933    -2.1519366847    -0.6100847866
   48      H       4.3115437375    -3.2410287478    -0.4841465994
   49      C      -4.6661961556     1.4818040840    -0.9598821139
   50      H      -4.7163975172     1.7087111406     0.1202044930
   51      H      -5.6686564326     1.6954810235    -1.3701588245
   52      C      -3.6718364993     2.4648034466    -1.5943757541
   53      H      -4.1047336024     3.4700505028    -1.6521166074
   54      H      -3.4091848119     2.1495764340    -2.6177236235
   55      C      -4.3069943427     0.0039695162    -1.1649159037
   56      H      -3.2225310154    -0.1024073681    -1.0432693050
   57      H      -4.5450687797    -0.2942985884    -2.2020456447
   58      C      -4.9985799640    -0.9313343133    -0.1757820243
   59      H      -4.9406597712    -0.4949367749     0.8330492217
   60      H      -6.0630383764    -1.0627409995    -0.4265266090
   61      O      -3.5035423365    -3.6032773967    -1.9812468029
   62      O       5.7053500894    -0.6821135442     0.5482107361
   63      O       0.0656825229    -0.4509089781     0.3732389177
   64      Fe     -0.0829581007     1.4589670284     0.3683626892
   65      O      -0.6582136511     1.1066292887     2.3136245000
   66      O      -1.6709868808     1.4268674878    -0.8297077509
   67      O      -0.9580369705     3.4058589294     0.6257068461
   68      O       1.0734614797     1.8875960792    -1.2350858312
   69      O      -0.4246347320    -0.4524128999     3.9146550035
   70      O       1.7841577709     2.0491766524     1.2237763784
 ----------------------------------------------------------------

 Total job time:  90899.45s(wall), 1208328.64s(cpu)
        *  Thank you very much for using Q-Chem.  Have a nice day.  *
