 Q-Chem 6.0, Q-Chem, Inc., Pleasanton, CA (2022)
 Q-Chem 6.0.2 for Intel X86 EM64T Linux

User input:
--------------------------------------------------------------
$molecule
-3 6
N   -2.4262102    2.5604723   -0.8388025
C   -4.3697264   -2.3336989   -0.1243507
H   -4.9163457   -2.9093987    0.6470413
N   -2.9499868   -2.3379094    0.2046549
H   -2.4124937   -2.8745561   -0.4769806
C   -4.5455961   -3.0993934   -1.4737688
O   -5.7154687   -3.1484993   -1.9280402
C   -2.4071864   -1.9391830    1.3721450
O   -3.0622167   -1.3505365    2.2496255
C   -2.0260630    3.5569212   -0.0511169
C   -2.8224130    4.8326616    0.0355603
H   -2.9682921    5.2877820   -0.9554896
H   -3.8154730    4.6506223    0.4749855
H   -2.2735848    5.5343202    0.6753001
C   -0.9430901   -2.2984130    1.5792450
H   -0.5813581   -2.9897818    0.8076472
H   -0.8907196   -2.8071863    2.5541622
C    0.0248566   -1.0904764    1.6136425
C   -0.4023025   -0.0945765    2.7302256
C    1.4595839   -1.5656434    1.9909156
H    1.4140664   -2.2467807    2.8538641
H    2.0406134   -0.6806518    2.2864484
C    2.1625088   -2.2635353    0.8394093
O    1.7302344   -3.3027351    0.3116678
N    3.2951585   -1.6595203    0.4289569
H    3.7112878   -0.9028188    0.9688634
C    5.5855270   -1.5076207   -0.4073526
O    6.4751314   -1.8720256   -1.2109804
N    2.3914871    2.0758288   -0.9324525
C    2.7142644    2.1492393    0.3542508
C    4.1437604    2.3318265    0.7774986
H    4.1514166    2.7719598    1.7833001
H    4.6598169    1.3558948    0.8110818
H    4.6994620    2.9843751    0.0899630
C    3.3172906    1.9925213   -2.0649954
H    2.7035038    2.2093245   -2.9495150
H    4.0716868    2.7879089   -1.9726642
C    3.9927289    0.6221881   -2.1631300
H    4.6786713    0.6320796   -3.0287325
H    4.6205966    0.4922398   -1.2721198
C    3.0007509   -0.5398420   -2.2649117
H    2.2018479   -0.3838117   -1.5239185
H    2.5126842   -0.5208691   -3.2557272
C    3.6132403   -1.9260634   -2.0320803
H    2.8324926   -2.6821713   -2.2133668
H    4.4345799   -2.1257699   -2.7395310
C    4.1798414   -2.1519367   -0.6100848
H    4.3115437   -3.2410287   -0.4841466
C   -4.6661962    1.4818041   -0.9598821
H   -4.7163975    1.7087111    0.1202045
H   -5.6686564    1.6954810   -1.3701588
C   -3.6718365    2.4648034   -1.5943758
H   -4.1047336    3.4700505   -1.6521166
H   -3.4091848    2.1495764   -2.6177236
C   -4.3069943    0.0039695   -1.1649159
H   -3.2225310   -0.1024074   -1.0432693
H   -4.5450688   -0.2942986   -2.2020456
C   -4.9985800   -0.9313343   -0.1757820
H   -4.9406598   -0.4949368    0.8330492
H   -6.0630384   -1.0627410   -0.4265266
O   -3.5035423   -3.6032774   -1.9812468
O    5.7053501   -0.6821135    0.5482107
O    0.0656825   -0.4509090    0.3732389
Fe   -0.0829581    1.4589670    0.3683627
O   -0.6582137    1.1066293    2.3136245
O   -1.6709869    1.4268675   -0.8297078
O   -0.9580370    3.4058589    0.6257068
O    1.0734615    1.8875961   -1.2350858
O   -0.4246347   -0.4524129    3.9146550
O    1.7841578    2.0491767    1.2237764
$end

$rem
BASIS  =  gen
CORRELATION  =  TPSS
DFT_D  =  D3_BJ
EXCHANGE  =  TPSSH
GUI  =  2
JOB_TYPE  =  Optimization
SCF_CONVERGENCE  =  8
SOLVENT_METHOD  =  PCM
$end

$pcm
THEORY  CPCM
$end

$solvent
DIELECTRIC  78.39
$end

$van_der_waals
26   2.44
$end

!----------------------------------------------------------------------
! Basis Set Exchange
! Basis set: cc-pVDZ
!----------------------------------------------------------------------

$rem
BASIS GEN
PURECART 11
$end

$basis
H     0
S   4   1.00
1.301000D+01           1.968500D-02
1.962000D+00           1.379770D-01
4.446000D-01           4.781480D-01
1.220000D-01           5.012400D-01
S   1   1.00
1.220000D-01           1.000000D+00
P   1   1.00
7.270000D-01           1.0000000
****
C     0
S   9   1.00
6.665000D+03           6.920000D-04
1.000000D+03           5.329000D-03
2.280000D+02           2.707700D-02
6.471000D+01           1.017180D-01
2.106000D+01           2.747400D-01
7.495000D+00           4.485640D-01
2.797000D+00           2.850740D-01
5.215000D-01           1.520400D-02
1.596000D-01          -3.191000D-03
S   9   1.00
6.665000D+03          -1.460000D-04
1.000000D+03          -1.154000D-03
2.280000D+02          -5.725000D-03
6.471000D+01          -2.331200D-02
2.106000D+01          -6.395500D-02
7.495000D+00          -1.499810D-01
2.797000D+00          -1.272620D-01
5.215000D-01           5.445290D-01
1.596000D-01           5.804960D-01
S   1   1.00
1.596000D-01           1.000000D+00
P   4   1.00
9.439000D+00           3.810900D-02
2.002000D+00           2.094800D-01
5.456000D-01           5.085570D-01
1.517000D-01           4.688420D-01
P   1   1.00
1.517000D-01           1.000000D+00
D   1   1.00
5.500000D-01           1.0000000
****
N     0
S   9   1.00
9.046000D+03           7.000000D-04
1.357000D+03           5.389000D-03
3.093000D+02           2.740600D-02
8.773000D+01           1.032070D-01
2.856000D+01           2.787230D-01
1.021000D+01           4.485400D-01
3.838000D+00           2.782380D-01
7.466000D-01           1.544000D-02
2.248000D-01          -2.864000D-03
S   9   1.00
9.046000D+03          -1.530000D-04
1.357000D+03          -1.208000D-03
3.093000D+02          -5.992000D-03
8.773000D+01          -2.454400D-02
2.856000D+01          -6.745900D-02
1.021000D+01          -1.580780D-01
3.838000D+00          -1.218310D-01
7.466000D-01           5.490030D-01
2.248000D-01           5.788150D-01
S   1   1.00
2.248000D-01           1.000000D+00
P   4   1.00
1.355000D+01           3.991900D-02
2.917000D+00           2.171690D-01
7.973000D-01           5.103190D-01
2.185000D-01           4.622140D-01
P   1   1.00
2.185000D-01           1.000000D+00
D   1   1.00
8.170000D-01           1.0000000
****
O     0
S   9   1.00
1.172000D+04           7.100000D-04
1.759000D+03           5.470000D-03
4.008000D+02           2.783700D-02
1.137000D+02           1.048000D-01
3.703000D+01           2.830620D-01
1.327000D+01           4.487190D-01
5.025000D+00           2.709520D-01
1.013000D+00           1.545800D-02
3.023000D-01          -2.585000D-03
S   9   1.00
1.172000D+04          -1.600000D-04
1.759000D+03          -1.263000D-03
4.008000D+02          -6.267000D-03
1.137000D+02          -2.571600D-02
3.703000D+01          -7.092400D-02
1.327000D+01          -1.654110D-01
5.025000D+00          -1.169550D-01
1.013000D+00           5.573680D-01
3.023000D-01           5.727590D-01
S   1   1.00
3.023000D-01           1.000000D+00
P   4   1.00
1.770000D+01           4.301800D-02
3.854000D+00           2.289130D-01
1.046000D+00           5.087280D-01
2.753000D-01           4.605310D-01
P   1   1.00
2.753000D-01           1.000000D+00
D   1   1.00
1.185000D+00           1.0000000
****
Fe     0
S   20   1.00
4.316265D+06           8.048803D-06
6.463424D+05           6.258306D-05
1.470897D+05           3.290239D-04
4.166152D+04           1.387355D-03
1.359077D+04           5.023256D-03
4.905750D+03           1.610140D-02
1.912746D+03           4.590034D-02
7.926043D+02           1.136154D-01
3.448065D+02           2.283869D-01
1.558999D+02           3.221159D-01
7.223091D+01           2.383661D-01
3.272506D+01           7.404667D-02
1.566762D+01           9.214197D-02
7.503483D+00           9.339790D-02
3.312223D+00           1.573965D-02
1.558471D+00          -4.186682D-04
6.839140D-01           5.376318D-05
1.467570D-01          -3.816654D-05
7.058300D-02           4.319603D-05
3.144900D-02          -3.401019D-06
S   20   1.00
4.316265D+06          -4.155954D-06
6.463424D+05          -3.231401D-05
1.470897D+05          -1.699525D-04
4.166152D+04          -7.171369D-04
1.359077D+04          -2.603625D-03
4.905750D+03          -8.399109D-03
1.912746D+03          -2.434109D-02
7.926043D+02          -6.251948D-02
3.448065D+02          -1.365929D-01
1.558999D+02          -2.312707D-01
7.223091D+01          -2.383734D-01
3.272506D+01           3.123837D-02
1.566762D+01           5.086818D-01
7.503483D+00           4.987695D-01
3.312223D+00           9.033552D-02
1.558471D+00          -6.005337D-03
6.839140D-01           2.312454D-04
1.467570D-01          -5.643680D-04
7.058300D-02           4.992260D-04
3.144900D-02          -1.015293D-04
S   20   1.00
4.316265D+06           9.532178D-07
6.463424D+05           7.414605D-06
1.470897D+05           3.898393D-05
4.166152D+04           1.647152D-04
1.359077D+04           5.985980D-04
4.905750D+03           1.942390D-03
1.912746D+03           5.687237D-03
7.926043D+02           1.501329D-02
3.448065D+02           3.452455D-02
1.558999D+02           6.495820D-02
7.223091D+01           7.716194D-02
3.272506D+01          -1.873411D-02
1.566762D+01          -3.009185D-01
7.503483D+00          -4.554661D-01
3.312223D+00           1.286463D-01
1.558471D+00           7.183316D-01
6.839140D-01           4.051743D-01
1.467570D-01           2.168227D-02
7.058300D-02          -8.343566D-03
3.144900D-02           3.658979D-03
S   20   1.00
4.316265D+06          -2.063008D-07
6.463424D+05          -1.604169D-06
1.470897D+05          -8.438437D-06
4.166152D+04          -3.563151D-05
1.359077D+04          -1.295998D-04
4.905750D+03          -4.201534D-04
1.912746D+03          -1.231954D-03
7.926043D+02          -3.248922D-03
3.448065D+02          -7.493717D-03
1.558999D+02          -1.410102D-02
7.223091D+01          -1.691600D-02
3.272506D+01           4.218996D-03
1.566762D+01           6.833810D-02
7.503483D+00           1.098201D-01
3.312223D+00          -4.009005D-02
1.558471D+00          -2.174739D-01

   21   -3318.0275607706      4.33e-09  Convergence criterion met
 Total energy in the final basis set =    -3318.0275607706
   17   -3318.0278596872      4.79e-09  Convergence criterion met
 Total energy in the final basis set =    -3318.0278596872
   17   -3318.0279418069      5.27e-09  Convergence criterion met
 Total energy in the final basis set =    -3318.0279418069
   17   -3318.0279789917      5.17e-09  Convergence criterion met
 Total energy in the final basis set =    -3318.0279789917
   17   -3318.0280062970      5.10e-09  Convergence criterion met
 Total energy in the final basis set =    -3318.0280062970
   17   -3318.0280259563      5.09e-09  Convergence criterion met
 Total energy in the final basis set =    -3318.0280259563
   17   -3318.0280471757      5.10e-09  Convergence criterion met
 Total energy in the final basis set =    -3318.0280471757
   17   -3318.0280631863      5.12e-09  Convergence criterion met
   17   -3318.0281005044      5.81e-09  Convergence criterion met
 Total energy in the final basis set =    -3318.0281005044
   17   -3318.0281024742      6.08e-09  Convergence criterion met
 Total energy in the final basis set =    -3318.0281024742
   17   -3318.0281039856      6.20e-09  Convergence criterion met
 Total energy in the final basis set =    -3318.0281039856
   17   -3318.0281053265      6.24e-09  Convergence criterion met
 Total energy in the final basis set =    -3318.0281053265
   17   -3318.0281080020      6.22e-09  Convergence criterion met
 Total energy in the final basis set =    -3318.0281080020
   17   -3318.0281091377      6.22e-09  Convergence criterion met
 Total energy in the final basis set =    -3318.0281091377
   17   -3318.0281101267      6.22e-09  Convergence criterion met
 Total energy in the final basis set =    -3318.0281101267

                    Orbital Energies (a.u.)
 --------------------------------------------------------------

 Alpha MOs
 -- Occupied --
******** -29.9512 -25.7822 -25.7796 -25.7778 -19.0482 -19.0448 -19.0435
-19.0431 -19.0226 -19.0106 -19.0076 -19.0051 -19.0014 -18.9883 -18.9833
-18.9813 -18.9764 -14.3304 -14.3274 -14.2552 -14.2532 -10.2111 -10.2073
-10.1977 -10.1951 -10.1942 -10.1824 -10.1779 -10.1570 -10.1569 -10.1544
-10.1340 -10.1324 -10.1281 -10.1208 -10.1150 -10.1105 -10.1103 -10.1053
-10.1051 -10.1031 -10.1003 -10.0974  -3.5334  -2.3105  -2.3051  -2.3017
 -1.0485  -1.0424  -0.9999  -0.9835  -0.9800  -0.9760  -0.9729  -0.9716
 -0.9688  -0.9275  -0.9090  -0.8910  -0.8869  -0.8699  -0.8656  -0.8250
 -0.8213  -0.7639  -0.7621  -0.7384  -0.7260  -0.7175  -0.7001  -0.6941
 -0.6820  -0.6589  -0.6477  -0.6116  -0.6009  -0.5795  -0.5601  -0.5557
 -0.5244  -0.5226  -0.5190  -0.5088  -0.4960  -0.4897  -0.4826  -0.4763
 -0.4725  -0.4702  -0.4654  -0.4521  -0.4485  -0.4435  -0.4381  -0.4356
 -0.4319  -0.4270  -0.4183  -0.4158  -0.4134  -0.4082  -0.4043  -0.4032
 -0.3992  -0.3948  -0.3913  -0.3874  -0.3848  -0.3812  -0.3774  -0.3755
 -0.3741  -0.3719  -0.3682  -0.3637  -0.3613  -0.3582  -0.3568  -0.3539
 -0.3504  -0.3479  -0.3475  -0.3444  -0.3414  -0.3398  -0.3372  -0.3334
 -0.3316  -0.3286  -0.3273  -0.3258  -0.3221  -0.3132  -0.3070  -0.3023
 -0.3000  -0.2997  -0.2962  -0.2949  -0.2891  -0.2862  -0.2830  -0.2739
 -0.2578  -0.2567  -0.2449  -0.2315  -0.2219  -0.2211  -0.2190  -0.2125
 -0.2084  -0.2060  -0.2030  -0.2000  -0.1985  -0.1951  -0.1938  -0.1874
 -0.1840  -0.1821  -0.1789  -0.1693

 Beta MOs
 -- Occupied --
******** -29.8701 -25.7130 -25.7117 -25.7106 -19.0427 -19.0421 -19.0402
-19.0387 -19.0193 -19.0106 -19.0076 -19.0008 -18.9981 -18.9883 -18.9833
-18.9813 -18.9764 -14.3301 -14.3272 -14.2552 -14.2532 -10.2112 -10.2073
-10.1977 -10.1951 -10.1941 -10.1824 -10.1779 -10.1569 -10.1568 -10.1543
-10.1340 -10.1324 -10.1280 -10.1207 -10.1150 -10.1105 -10.1101 -10.1051
-10.1051 -10.1031 -10.1003 -10.0974  -3.3307  -2.0980  -2.0967  -2.0947
 -1.0436  -1.0380  -0.9965  -0.9834  -0.9800  -0.9729  -0.9704  -0.9688
 -0.9660  -0.9184  -0.9021  -0.8910  -0.8868  -0.8699  -0.8656  -0.8205
 -0.8169  -0.7635  -0.7616  -0.7364  -0.7256  -0.7165  -0.6992  -0.6931
 -0.6813  -0.6584  -0.6473  -0.6111  -0.6004  -0.5781  -0.5595  -0.5549
 -0.5238  -0.5197  -0.5176  -0.5049  -0.4942  -0.4871  -0.4795  -0.4721
 -0.4677  -0.4651  -0.4625  -0.4463  -0.4461  -0.4413  -0.4370  -0.4339
 -0.4311  -0.4239  -0.4177  -0.4145  -0.4112  -0.4076  -0.4020  -0.4004
 -0.3954  -0.3918  -0.3858  -0.3835  -0.3814  -0.3787  -0.3743  -0.3725
 -0.3708  -0.3673  -0.3656  -0.3600  -0.3581  -0.3551  -0.3534  -0.3504
 -0.3464  -0.3436  -0.3419  -0.3379  -0.3344  -0.3335  -0.3275  -0.3256
 -0.3149  -0.3137  -0.3045  -0.3024  -0.2995  -0.2990  -0.2947  -0.2906
 -0.2862  -0.2829  -0.2729  -0.2682  -0.2594  -0.2553  -0.2495  -0.2423
 -0.2340  -0.2218  -0.2198  -0.2167  -0.2090  -0.2082  -0.2050  -0.2030
 -0.1986  -0.1951  -0.1947  -0.1873  -0.1844  -0.1827  -0.1726

          Ground-State Mulliken Net Atomic Charges

     Atom                 Charge (a.u.)    Spin (a.u.)
  --------------------------------------------------------
      1 N                    -0.061686       0.012682
      2 C                    -0.049628       0.000014
      3 H                     0.016323       0.000003
      4 N                    -0.142270      -0.000057
      5 H                     0.094103      -0.000010
      6 C                     0.139121      -0.000004
      7 O                    -0.466227       0.000011
      8 C                     0.175000       0.000074
      9 O                    -0.396060       0.000500
     10 C                     0.155350       0.004078
     11 C                    -0.018855       0.003080
     12 H                     0.081782       0.000336
     13 H                     0.081010       0.000172
     14 H                     0.060637       0.000345
     15 C                     0.096025       0.004945
     16 H                     0.013683       0.000109
     17 H                     0.023495       0.001444
     18 C                    -0.100847       0.006359
     19 C                     0.253528       0.005906
     20 C                     0.079631       0.007839
     21 H                     0.031686       0.001718
     22 H                     0.026464       0.000138
     23 C                     0.180300       0.000389
     24 O                    -0.394165       0.000257
     25 N                    -0.133413      -0.000240
     26 H                     0.112444      -0.000080
     27 C                     0.145035       0.000003
     28 O                    -0.451324       0.000042
     29 N                    -0.059731       0.008682
     30 C                     0.154924       0.008360
     31 C                    -0.033932       0.003171
     32 H                     0.056703       0.000220
     33 H                     0.082775       0.000487
     34 H                     0.064258       0.000677
     35 C                     0.115331       0.001850
     36 H                     0.046972       0.000314
     37 H                     0.054688       0.000951
     38 C                    -0.071304       0.000409
     39 H                     0.023662       0.000604
     40 H                     0.037866       0.000056
     41 C                    -0.082301      -0.000031
     42 H                     0.092148       0.001351
     43 H                     0.014184      -0.000028
     44 C                     0.013968       0.000139
     45 H                     0.007301      -0.000020
     46 H                     0.003307      -0.000010
     47 C                    -0.042190      -0.000006
     48 H                     0.017387       0.000006
     49 C                    -0.042161      -0.000018
     50 H                     0.032274       0.000014
     51 H                     0.032329       0.000007
     52 C                     0.107093       0.002140
     53 H                     0.052898       0.002100
     54 H                     0.049032       0.000890
     55 C                    -0.067784       0.001395
     56 H                     0.055056       0.000449
     57 H                     0.012901       0.000079
     58 C                     0.013339       0.000080
     59 H                     0.006028      -0.000007
     60 H                     0.002281       0.000127
     61 O                    -0.462676      -0.000002
     62 O                    -0.446616       0.000047
     63 O                    -0.494350       0.219296
     64 Fe                    0.564719       4.138823
     65 O                    -0.407486       0.088835
     66 O                    -0.440774       0.158984
     67 O                    -0.381896       0.071922
     68 O                    -0.441536       0.139963
     69 O                    -0.404358       0.021070
     70 O                    -0.385472       0.076570
  --------------------------------------------------------
  Sum of atomic charges =    -3.000000

                    Cartesian Multipole Moments
 -----------------------------------------------------------------
    Charge (ESU x 10^10)
               -14.4096
    Dipole Moment (Debye)
         X      -0.4185      Y      22.6384      Z      -4.4532
       Tot      23.0760
    Quadrupole Moments (Debye-Ang)
        XX    -471.4652     XY     -37.0405     YY    -310.7535
        XZ     -11.1297     YZ     -43.2839     ZZ    -318.2993

 Final energy is -3318.028110126723
	**  OPTIMIZATION CONVERGED  **

             Standard Nuclear Orientation (Angstroms)
    I     Atom           X                Y                Z
 ----------------------------------------------------------------
    1      N      -2.4273710772     2.5699619134    -0.7969862642
    2      C      -4.3446465175    -2.3319146691    -0.1711803364
    3      H      -4.8869310700    -2.9287762361     0.5876340621
    4      N      -2.9255715609    -2.3180511622     0.1681812161
    5      H      -2.3833820227    -2.8535915604    -0.5172479663
    6      C      -4.4852456846    -3.0816309615    -1.5326516179
    7      O      -5.6446890971    -3.1204285082    -2.0226895876
    8      C      -2.4010403789    -1.9442069658     1.3550520355
    9      O      -3.0776321653    -1.3816321111     2.2386735134
   10      C      -2.0128737766     3.5665477818    -0.0126505058
   11      C      -2.7930832236     4.8522593687     0.0715322702
   12      H      -2.9591184600     5.2913547818    -0.9236633576
   13      H      -3.7753034968     4.6870922967     0.5415940511
   14      H      -2.2182249854     5.5567744803     0.6848144105
   15      C      -0.9387095224    -2.2992924030     1.5774723909
   16      H      -0.5658697723    -2.9908386748     0.8094222608
   17      H      -0.8977790081    -2.8058741121     2.5547579245
   18      C       0.0355654883    -1.0942213232     1.6308321742
   19      C      -0.3967840131    -0.1021776496     2.7459003124
   20      C       1.4584740258    -1.5923302432     2.0287038383
   21      H       1.3838847081    -2.2906553969     2.8762809406
   22      H       2.0463965368    -0.7204343501     2.3518090759
   23      C       2.1640487670    -2.2766147268     0.8720053889
   24      O       1.7371374861    -3.3169433465     0.3326951282
   25      N       3.2928551244    -1.6621320456     0.4605247561
   26      H       3.7249653234    -0.9146308832     1.0091125260
   27      C       5.5684145501    -1.4728609998    -0.3877014092
   28      O       6.4613666041    -1.8050290097    -1.2069300263
   29      N       2.3576166521     2.0704829023    -0.9673155494
   30      C       2.6993347124     2.1775121334     0.3151791007
   31      C       4.1341889422     2.3781835190     0.7124407111
   32      H       4.1515301126     2.8628721827     1.6977155288
   33      H       4.6491127646     1.4032529611     0.7836161024
   34      H       4.6793735351     3.0013934217    -0.0104478054
   35      C       3.2682931960     1.9576701095    -2.1135636108
   36      H       2.6360118899     2.1404781035    -2.9927934942
   37      H       4.0148450237     2.7638429990    -2.0545139037
   38      C       3.9537937714     0.5895080167    -2.1687650950
   39      H       4.6504158167     0.5817494571    -3.0254241509
   40      H       4.5691060556     0.4901090256    -1.2622758953
   41      C       2.9722976554    -0.5837873659    -2.2551283985
   42      H       2.1663219869    -0.4271047664    -1.5198878076
   43      H       2.4914433213    -0.5868746032    -3.2498995089
   44      C       3.6047423936    -1.9586535266    -2.0023343189
   45      H       2.8352834887    -2.7295236319    -2.1704512893
   46      H       4.4321320874    -2.1535510690    -2.7048725905
   47      C       4.1793824481    -2.1531642635    -0.5794170557
   48      H       4.3339697798    -3.2381759366    -0.4373148154
   49      C      -4.6639449817     1.4897800230    -0.9428192014
   50      H      -4.7094079892     1.6911922625     0.1426261759
   51      H      -5.6668967218     1.7132715739    -1.3466057506
   52      C      -3.6719362957     2.4875973228    -1.5598544436
   53      H      -4.1030091017     3.4956423142    -1.5924896734
   54      H      -3.4051969872     2.1950931062    -2.5887109838
   55      C      -4.3044998467     0.0163746924    -1.1820982301
   56      H      -3.2182550784    -0.0938058619    -1.0622833891
   57      H      -4.5472134530    -0.2612692662    -2.2238639502
   58      C      -4.9939286204    -0.9383200655    -0.2078652259
   59      H      -4.9472473761    -0.5152351048     0.8085408066
   60      H      -6.0548024032    -1.0819725748    -0.4696680957
   61      O      -3.4273737047    -3.5886040340    -2.0147174324
   62      O       5.6767233026    -0.6522180845     0.5795597574
   63      O       0.1071735262    -0.4447996705     0.3949719185
   64      Fe     -0.0809390406     1.4607101787     0.3848428332
   65      O      -0.6419890677     1.1047216822     2.3303115388
   66      O      -1.6831159093     1.4286697011    -0.7872194296
   67      O      -0.9419583738     3.4016741252     0.6623441720
   68      O       1.0351719179     1.8711391966    -1.2444880895
   69      O      -0.4349811928    -0.4650741310     3.9328395976
   70      O       1.7780884820     2.0962825620     1.2009920375
 ----------------------------------------------------------------

 Total job time:  586244.81s(wall), 1167919.51s(cpu)
        *  Thank you very much for using Q-Chem.  Have a nice day.  *
