 Q-Chem 6.0, Q-Chem, Inc., Pleasanton, CA (2022)
 Q-Chem 6.0.2 for Intel X86 EM64T Linux

User input:
--------------------------------------------------------------
$molecule
-3 6
C   -2.7879826    1.9170323    1.5546301
C   -2.8345311   -1.4324396   -1.3806912
H   -3.4397907   -2.3542762   -1.3032470
N   -1.9328605   -1.3752210   -0.2433735
H   -0.9486404   -1.1984578   -0.4442866
C   -2.0051660   -1.5354275   -2.6951254
O   -2.6746002   -1.6035724   -3.7554551
C   -2.2727040   -1.5913203    1.0394835
O   -3.4523957   -1.7382539    1.4136708
N   -2.4950197    2.8996433    0.6849876
C   -3.4225771    3.4039472   -0.3427488
H   -2.7997937    4.0489458   -0.9744318
H   -4.1868036    4.0393228    0.1303844
C   -1.1211345   -1.8401079    2.0135704
H   -0.8620518   -2.8959071    1.8366941
H   -1.5257945   -1.7659727    3.0306240
C    0.2040373   -1.0135704    1.9313542
C    0.3080095    0.0028281    3.1108693
C    1.4238308   -1.9646460    2.1382399
H    1.2046558   -2.6663620    2.9574516
H    2.2961945   -1.3628923    2.4321162
C    1.7516923   -2.7360716    0.8699192
O    0.9428867   -3.5039964    0.3204163
N    2.9870664   -2.5066100    0.3882452
H    3.6463913   -1.9030103    0.8782115
C    5.0649081   -2.7394299   -0.8614376
O    5.7143569   -3.2878233   -1.7853755
C    2.5708833    2.3216410   -0.4144040
N    1.8590246    1.8738097   -1.4391278
C    2.3315093    1.5251503   -2.7772271
H    3.3619359    1.8876443   -2.8776024
H    1.7010424    2.0741145   -3.4945185
C    4.0460943    2.5877342   -0.5280476
H    4.3496145    3.2031664    0.3283243
H    4.3131967    3.1067106   -1.4583426
C    2.2581953    0.0162246   -3.0319199
H    1.2080957   -0.3115254   -2.9959597
H    2.6211025   -0.1652060   -4.0588793
C    3.0841744   -0.7708696   -2.0166044
H    4.1541411   -0.5248073   -2.1377877
H    2.8016112   -0.4336315   -1.0068813
C    2.8858786   -2.2859936   -2.0755587
H    1.8089710   -2.5171153   -2.0911189
H    3.3324029   -2.7054284   -2.9921434
C    3.5297247   -2.9974068   -0.8662733
H    3.3483655   -4.0808714   -0.9531440
C   -4.0857522    2.2769741   -1.1550432
H   -4.5516256    2.7301750   -2.0464430
H   -4.9191526    1.8708234   -0.5593086
C   -4.1926448    1.7247475    2.0505364
H   -4.1718867    1.7650984    3.1507869
H   -4.8997037    2.4741697    1.6772564
C   -3.1453090    1.1166260   -1.5397943
H   -2.2756568    1.1037142   -0.8689082
H   -2.7386173    1.2675702   -2.5538993
C   -3.8234153   -0.2533969   -1.4396084
H   -4.4339600   -0.2892191   -0.5242869
H   -4.4936801   -0.4234114   -2.2968757
O   -0.7446526   -1.5326147   -2.5853250
O    5.5065551   -1.9726615    0.0424993
O    0.3621193   -0.3401125    0.7154095
Fe    0.1151072    1.5587941    0.8005644
O    0.6610412    1.2017351    2.7643518
O   -1.8555527    1.1869420    1.9714744
O   -1.1735550    2.9902400    0.3290234
O    1.9727257    2.4900432    0.7081142
O    0.1284944   -0.3740540    4.2765206
O    0.5446830    1.6296174   -1.2119871
H   -4.5256127    0.7149645    1.7655592
H    4.6042505    1.6373650   -0.4909686
$end

$rem
BASIS  =  gen
DFT_D  =  D3_BJ
GUI  =  2
JOB_TYPE  =  Optimization
METHOD  =  B3LYP
SCF_CONVERGENCE  =  8
SOLVENT_METHOD  =  PCM
$end

$pcm
THEORY  CPCM
$end

$solvent
DIELECTRIC  78.39
$end

$van_der_waals
26   2.44
$end

!----------------------------------------------------------------------
! Basis Set Exchange
! Basis set: cc-pVDZ
!----------------------------------------------------------------------

$rem
BASIS GEN
PURECART 11
$end

$basis
H     0
S   4   1.00
1.301000D+01           1.968500D-02
1.962000D+00           1.379770D-01
4.446000D-01           4.781480D-01
1.220000D-01           5.012400D-01
S   1   1.00
1.220000D-01           1.000000D+00
P   1   1.00
7.270000D-01           1.0000000
****
C     0
S   9   1.00
6.665000D+03           6.920000D-04
1.000000D+03           5.329000D-03
2.280000D+02           2.707700D-02
6.471000D+01           1.017180D-01
2.106000D+01           2.747400D-01
7.495000D+00           4.485640D-01
2.797000D+00           2.850740D-01
5.215000D-01           1.520400D-02
1.596000D-01          -3.191000D-03
S   9   1.00
6.665000D+03          -1.460000D-04
1.000000D+03          -1.154000D-03
2.280000D+02          -5.725000D-03
6.471000D+01          -2.331200D-02
2.106000D+01          -6.395500D-02
7.495000D+00          -1.499810D-01
2.797000D+00          -1.272620D-01
5.215000D-01           5.445290D-01
1.596000D-01           5.804960D-01
S   1   1.00
1.596000D-01           1.000000D+00
P   4   1.00
9.439000D+00           3.810900D-02
2.002000D+00           2.094800D-01
5.456000D-01           5.085570D-01
1.517000D-01           4.688420D-01
P   1   1.00
1.517000D-01           1.000000D+00
D   1   1.00
5.500000D-01           1.0000000
****
N     0
S   9   1.00
9.046000D+03           7.000000D-04
1.357000D+03           5.389000D-03
3.093000D+02           2.740600D-02
8.773000D+01           1.032070D-01
2.856000D+01           2.787230D-01
1.021000D+01           4.485400D-01
3.838000D+00           2.782380D-01
7.466000D-01           1.544000D-02
2.248000D-01          -2.864000D-03
S   9   1.00
9.046000D+03          -1.530000D-04
1.357000D+03          -1.208000D-03
3.093000D+02          -5.992000D-03
8.773000D+01          -2.454400D-02
2.856000D+01          -6.745900D-02
1.021000D+01          -1.580780D-01
3.838000D+00          -1.218310D-01
7.466000D-01           5.490030D-01
2.248000D-01           5.788150D-01
S   1   1.00
2.248000D-01           1.000000D+00
P   4   1.00
1.355000D+01           3.991900D-02
2.917000D+00           2.171690D-01
7.973000D-01           5.103190D-01
2.185000D-01           4.622140D-01
P   1   1.00
2.185000D-01           1.000000D+00
D   1   1.00
8.170000D-01           1.0000000
****
O     0
S   9   1.00
1.172000D+04           7.100000D-04
1.759000D+03           5.470000D-03
4.008000D+02           2.783700D-02
1.137000D+02           1.048000D-01
3.703000D+01           2.830620D-01
1.327000D+01           4.487190D-01
5.025000D+00           2.709520D-01
1.013000D+00           1.545800D-02
3.023000D-01          -2.585000D-03
S   9   1.00
1.172000D+04          -1.600000D-04
1.759000D+03          -1.263000D-03
4.008000D+02          -6.267000D-03
1.137000D+02          -2.571600D-02
3.703000D+01          -7.092400D-02
1.327000D+01          -1.654110D-01
5.025000D+00          -1.169550D-01
1.013000D+00           5.573680D-01
3.023000D-01           5.727590D-01
S   1   1.00
3.023000D-01           1.000000D+00
P   4   1.00
1.770000D+01           4.301800D-02
3.854000D+00           2.289130D-01
1.046000D+00           5.087280D-01
2.753000D-01           4.605310D-01
P   1   1.00
2.753000D-01           1.000000D+00
D   1   1.00
1.185000D+00           1.0000000
****
Fe     0
S   20   1.00
4.316265D+06           8.048803D-06
6.463424D+05           6.258306D-05
1.470897D+05           3.290239D-04
4.166152D+04           1.387355D-03
1.359077D+04           5.023256D-03
4.905750D+03           1.610140D-02
1.912746D+03           4.590034D-02
7.926043D+02           1.136154D-01
3.448065D+02           2.283869D-01
1.558999D+02           3.221159D-01
7.223091D+01           2.383661D-01
3.272506D+01           7.404667D-02
1.566762D+01           9.214197D-02
7.503483D+00           9.339790D-02
3.312223D+00           1.573965D-02
1.558471D+00          -4.186682D-04
6.839140D-01           5.376318D-05
1.467570D-01          -3.816654D-05
7.058300D-02           4.319603D-05
3.144900D-02          -3.401019D-06
S   20   1.00
4.316265D+06          -4.155954D-06
6.463424D+05          -3.231401D-05
1.470897D+05          -1.699525D-04
4.166152D+04          -7.171369D-04
1.359077D+04          -2.603625D-03
4.905750D+03          -8.399109D-03
1.912746D+03          -2.434109D-02
7.926043D+02          -6.251948D-02
3.448065D+02          -1.365929D-01
1.558999D+02          -2.312707D-01
7.223091D+01          -2.383734D-01
3.272506D+01           3.123837D-02
1.566762D+01           5.086818D-01
7.503483D+00           4.987695D-01
3.312223D+00           9.033552D-02
1.558471D+00          -6.005337D-03
6.839140D-01           2.312454D-04
1.467570D-01          -5.643680D-04
7.058300D-02           4.992260D-04
3.144900D-02          -1.015293D-04
S   20   1.00
4.316265D+06           9.532178D-07
6.463424D+05           7.414605D-06
1.470897D+05           3.898393D-05
4.166152D+04           1.647152D-04
1.359077D+04           5.985980D-04
4.905750D+03           1.942390D-03
1.912746D+03           5.687237D-03
7.926043D+02           1.501329D-02
3.448065D+02           3.452455D-02
1.558999D+02           6.495820D-02
7.223091D+01           7.716194D-02
3.272506D+01          -1.873411D-02
1.566762D+01          -3.009185D-01
7.503483D+00          -4.554661D-01
3.312223D+00           1.286463D-01
1.558471D+00           7.183316D-01
6.839140D-01           4.051743D-01
1.467570D-01           2.168227D-02
7.058300D-02          -8.343566D-03
3.144900D-02           3.658979D-03
S   20   1.00
4.316265D+06          -2.063008D-07
6.463424D+05          -1.604169D-06
1.470897D+05          -8.438437D-06
4.166152D+04          -3.563151D-05
1.359077D+04          -1.295998D-04
4.905750D+03          -4.201534D-04
1.912746D+03          -1.231954D-03
7.926043D+02          -3.248922D-03
3.448065D+02          -7.493717D-03
1.558999D+02          -1.410102D-02
7.223091D+01          -1.691600D-02
3.272506D+01           4.218996D-03
1.566762D+01           6.833810D-02
7.503483D+00           1.098201D-01
3.312223D+00          -4.009005D-02
1.558471D+00          -2.174739D-01
6.839140D-01          -2.465135D-01

   21   -3317.9914760797      5.63e-09  Convergence criterion met
 Total energy in the final basis set =    -3317.9914760797
   17   -3317.9914775170      7.32e-09  Convergence criterion met
 Total energy in the final basis set =    -3317.9914775170

                    Orbital Energies (a.u.)
 --------------------------------------------------------------

 Alpha MOs
 -- Occupied --
******** -30.1263 -25.9801 -25.9794 -25.9755 -19.1269 -19.1253 -19.1173
-19.1168 -19.0971 -19.0880 -19.0863 -19.0808 -19.0801 -19.0586 -19.0584
-19.0518 -19.0518 -14.4053 -14.3952 -14.3252 -14.3100 -10.2800 -10.2775
-10.2664 -10.2629 -10.2587 -10.2447 -10.2442 -10.2212 -10.2171 -10.2161
-10.1941 -10.1923 -10.1900 -10.1858 -10.1777 -10.1734 -10.1684 -10.1655
-10.1647 -10.1640 -10.1626 -10.1625  -3.6070  -2.3838  -2.3826  -2.3756
 -1.0779  -1.0724  -1.0296  -1.0116  -1.0045  -1.0039  -1.0020  -0.9970
 -0.9951  -0.9595  -0.9375  -0.9133  -0.9101  -0.8953  -0.8851  -0.8483
 -0.8443  -0.7861  -0.7811  -0.7610  -0.7478  -0.7399  -0.7212  -0.7175
 -0.7026  -0.6823  -0.6701  -0.6283  -0.6194  -0.5998  -0.5813  -0.5799
 -0.5448  -0.5408  -0.5359  -0.5303  -0.5156  -0.5121  -0.5067  -0.5024
 -0.4959  -0.4897  -0.4865  -0.4757  -0.4714  -0.4671  -0.4598  -0.4563
 -0.4526  -0.4510  -0.4389  -0.4352  -0.4329  -0.4303  -0.4269  -0.4259
 -0.4226  -0.4185  -0.4169  -0.4092  -0.4076  -0.4069  -0.4040  -0.4017
 -0.3982  -0.3958  -0.3918  -0.3902  -0.3889  -0.3871  -0.3828  -0.3809
 -0.3780  -0.3738  -0.3729  -0.3681  -0.3673  -0.3658  -0.3599  -0.3539
 -0.3523  -0.3496  -0.3463  -0.3433  -0.3411  -0.3359  -0.3309  -0.3243
 -0.3209  -0.3176  -0.3150  -0.3128  -0.3095  -0.3052  -0.3040  -0.2962
 -0.2874  -0.2760  -0.2707  -0.2533  -0.2431  -0.2420  -0.2397  -0.2390
 -0.2312  -0.2291  -0.2249  -0.2231  -0.2187  -0.2146  -0.2130  -0.2069
 -0.2045  -0.2036  -0.2030  -0.1950

 Beta MOs
 -- Occupied --
******** -30.0346 -25.9033 -25.9022 -25.9002 -19.1236 -19.1202 -19.1144
-19.1125 -19.0939 -19.0880 -19.0803 -19.0800 -19.0797 -19.0586 -19.0584
-19.0518 -19.0518 -14.4049 -14.3949 -14.3252 -14.3100 -10.2802 -10.2776
-10.2664 -10.2628 -10.2587 -10.2447 -10.2442 -10.2212 -10.2170 -10.2161
-10.1941 -10.1923 -10.1899 -10.1857 -10.1777 -10.1732 -10.1684 -10.1655
-10.1647 -10.1638 -10.1626 -10.1625  -3.3933  -2.1584  -2.1555  -2.1528
 -1.0729  -1.0676  -1.0260  -1.0115  -1.0032  -0.9977  -0.9970  -0.9969
 -0.9949  -0.9494  -0.9307  -0.9133  -0.9100  -0.8952  -0.8848  -0.8435
 -0.8394  -0.7856  -0.7806  -0.7591  -0.7472  -0.7390  -0.7201  -0.7163
 -0.7019  -0.6818  -0.6697  -0.6275  -0.6188  -0.5983  -0.5808  -0.5794
 -0.5438  -0.5367  -0.5354  -0.5240  -0.5111  -0.5067  -0.5047  -0.4967
 -0.4903  -0.4861  -0.4808  -0.4699  -0.4680  -0.4625  -0.4567  -0.4542
 -0.4507  -0.4467  -0.4352  -0.4333  -0.4288  -0.4268  -0.4240  -0.4214
 -0.4194  -0.4111  -0.4076  -0.4046  -0.4007  -0.3985  -0.3980  -0.3944
 -0.3918  -0.3882  -0.3874  -0.3834  -0.3809  -0.3760  -0.3742  -0.3694
 -0.3664  -0.3600  -0.3553  -0.3529  -0.3498  -0.3467  -0.3441  -0.3422
 -0.3374  -0.3348  -0.3233  -0.3204  -0.3169  -0.3158  -0.3108  -0.3093
 -0.3050  -0.3040  -0.2978  -0.2912  -0.2821  -0.2778  -0.2733  -0.2597
 -0.2510  -0.2401  -0.2392  -0.2363  -0.2301  -0.2250  -0.2231  -0.2192
 -0.2157  -0.2137  -0.2123  -0.2052  -0.2037  -0.2032  -0.1942

          Ground-State Mulliken Net Atomic Charges

     Atom                 Charge (a.u.)    Spin (a.u.)
  --------------------------------------------------------
      1 C                     0.111361      -0.000956
      2 C                    -0.004429       0.000038
      3 H                    -0.019640      -0.000014
      4 N                    -0.090277       0.001133
      5 H                     0.105476       0.000741
      6 C                     0.095134       0.000055
      7 O                    -0.447901       0.000040
      8 C                     0.106125      -0.000233
      9 O                    -0.395576       0.000512
     10 N                    -0.049831       0.014122
     11 C                     0.134430       0.001301
     12 H                     0.037305       0.000124
     13 H                     0.038854       0.000521
     14 C                     0.141227       0.007078
     15 H                     0.012948      -0.000126
     16 H                    -0.025087       0.000301
     17 C                    -0.033345       0.002449
     18 C                     0.220820       0.004640
     19 C                     0.099024       0.006943
     20 H                     0.015635       0.001770
     21 H                     0.002739      -0.000438
     22 C                     0.142306       0.000132
     23 O                    -0.378844       0.000346
     24 N                    -0.083358      -0.000028
     25 H                     0.079492      -0.000052
     26 C                     0.094711      -0.000004
     27 O                    -0.451350       0.000002
     28 C                     0.129067      -0.004008
     29 N                    -0.011374       0.015019
     30 C                     0.130500       0.001463
     31 H                     0.035342       0.001767
     32 H                     0.025126       0.000917
     33 C                     0.019018       0.004203
     34 H                     0.048169       0.000258
     35 H                     0.065769       0.000143
     36 C                    -0.014467       0.001048
     37 H                     0.013558       0.000207
     38 H                     0.004318      -0.000160
     39 C                    -0.067047      -0.000005
     40 H                     0.003806      -0.000007
     41 H                     0.027076      -0.000145
     42 C                     0.054191      -0.000002
     43 H                    -0.015414      -0.000028
     44 H                    -0.013884       0.000019
     45 C                     0.002178      -0.000001
     46 H                    -0.025822       0.000000
     47 C                    -0.021308       0.000892
     48 H                     0.012843       0.000216
     49 H                     0.008942       0.000035
     50 C                     0.024486       0.004003
     51 H                     0.055720       0.000090
     52 H                     0.047997       0.000885
     53 C                    -0.067691      -0.000127
     54 H                     0.099089       0.001778
     55 H                     0.001442       0.000038
     56 C                     0.050871       0.000053
     57 H                    -0.008207       0.000004
     58 H                    -0.017042       0.000110
     59 O                    -0.406109       0.000101
     60 O                    -0.447983       0.000002
     61 O                    -0.517236       0.215524
     62 Fe                    0.541991       4.137778
     63 O                    -0.392069       0.093273
     64 O                    -0.324761       0.069847
     65 O                    -0.442159       0.156489
     66 O                    -0.380495       0.093504
     67 O                    -0.386769       0.017377
     68 O                    -0.428370       0.147378
     69 H                     0.062584      -0.000249
     70 H                     0.066172      -0.000091
  --------------------------------------------------------
  Sum of atomic charges =    -3.000000

                    Cartesian Multipole Moments
 -----------------------------------------------------------------
    Charge (ESU x 10^10)
               -14.4096
    Dipole Moment (Debye)
         X     -12.2523      Y      20.8908      Z       1.7367
       Tot      24.2809
    Quadrupole Moments (Debye-Ang)
        XX    -386.4163     XY      35.9121     YY    -317.7053
        XZ      -5.0850     YZ     -42.4731     ZZ    -350.6254

 Final energy is -3317.991477517021
	**  OPTIMIZATION CONVERGED  **

             Standard Nuclear Orientation (Angstroms)
    I     Atom           X                Y                Z
 ----------------------------------------------------------------
    1      C      -2.7882818234     1.9175589305     1.5547403300
    2      C      -2.8343179111    -1.4324083893    -1.3806776049
    3      H      -3.4393038296    -2.3544091578    -1.3031690540
    4      N      -1.9326077445    -1.3753158336    -0.2433372014
    5      H      -0.9483991252    -1.1983984149    -0.4441570685
    6      C      -2.0050620068    -1.5355219957    -2.6949605179
    7      O      -2.6745178421    -1.6039799697    -3.7552652564
    8      C      -2.2724697497    -1.5914050784     1.0395353265
    9      O      -3.4521867038    -1.7384156162     1.4137299683
   10      N      -2.4951435689     2.9000890833     0.6849482613
   11      C      -3.4225843344     3.4040184642    -0.3431837561
   12      H      -2.7998431370     4.0488650325    -0.9750652182
   13      H      -4.1867995443     4.0397157640     0.1295453100
   14      C      -1.1209886214    -1.8402709903     2.0136166721
   15      H      -0.8619144819    -2.8960850927     1.8367794731
   16      H      -1.5255504231    -1.7661383203     3.0307023098
   17      C       0.2042206068    -1.0137080865     1.9314111825
   18      C       0.3079662329     0.0025873051     3.1109460012
   19      C       1.4240518461    -1.9647445186     2.1383290550
   20      H       1.2048367705    -2.6665288026     2.9574185655
   21      H       2.2962814025    -1.3628946750     2.4325127327
   22      C       1.7522119736    -2.7360658086     0.8700333062
   23      O       0.9435864492    -3.5042216874     0.3205785460
   24      N       2.9874157886    -2.5062037678     0.3882090439
   25      H       3.6466327052    -1.9024447536     0.8780885258
   26      C       5.0651689397    -2.7385354990    -0.8618783223
   27      O       5.7145376766    -3.2867184525    -1.7859994005
   28      C       2.5708820836     2.3209753209    -0.4140391910
   29      N       1.8587705784     1.8735067343    -1.4386796052
   30      C       2.3310136056     1.5252729607    -2.7770685447
   31      H       3.3613361620     1.8878776445    -2.8777276706
   32      H       1.7003577395     2.0744205050    -3.4940210272
   33      C       4.0462165273     2.5862735035    -0.5277667631
   34      H       4.3500971872     3.2015213598     0.3286105222
   35      H       4.3136714800     3.1051843693    -1.4579860544
   36      C       2.2575881216     0.0163106869    -3.0318798118
   37      H       1.2074827486    -0.3113600168    -2.9956960190
   38      H       2.6201474636    -0.1650623502    -4.0589813730
   39      C       3.0838461674    -0.7707324543    -2.0168158836
   40      H       4.1537589947    -0.5245729960    -2.1382547396
   41      H       2.8015519146    -0.4336462277    -1.0069965051
   42      C       2.8857678670    -2.2857954007    -2.0756258182
   43      H       1.8089092107    -2.5171311205    -2.0908372282
   44      H       3.3319490545    -2.7055052520    -2.9922495172
   45      C       3.5300246106    -2.9969122296    -0.8664059513
   46      H       3.3488282738    -4.0803901870    -0.9532256007
   47      C      -4.0857045470     2.2769942139    -1.1554016833
   48      H      -4.5514194710     2.7301558503    -2.0468570890
   49      H      -4.9191006198     1.8708063415    -0.5597166953
   50      C      -4.1929848846     1.7254103934     2.0505830251
   51      H      -4.1722891650     1.7656232796     3.1508159246
   52      H      -4.8998470993     2.4750741782     1.6773991327
   53      C      -3.1452022782     1.1166036319    -1.5399314184
   54      H      -2.2757497404     1.1037004781    -0.8687645507
   55      H      -2.7381761841     1.2675563272    -2.5539071918
   56      C      -3.8232197664    -0.2535005275    -1.4398101030
   57      H      -4.4338072156    -0.2891814430    -0.5244934977
   58      H      -4.4933010633    -0.4238379694    -2.2971313760
   59      O      -0.7445189054    -1.5324698260    -2.5852629304
   60      O       5.5068617144    -1.9716407931     0.0419150756
   61      O       0.3620863618    -0.3401112111     0.7155126536
   62      Fe      0.1147535060     1.5587984630     0.8008819860
   63      O       0.6611197043     1.2015177737     2.7645424566
   64      O      -1.8560562320     1.1873077047     1.9716575588
   65      O      -1.1737403907     2.9903431501     0.3292073603
   66      O       1.9729365425     2.4894485292     0.7085374918
   67      O       0.1284831946    -0.3743969816     4.2765695883
   68      O       0.5443077668     1.6295404033    -1.2115159261
   69      H      -4.5261181995     0.7158153196     1.7652217397
   70      H       4.6038943364     1.6356090946    -0.4907082595
 ----------------------------------------------------------------

 Total job time:  6457.53s(wall), 106129.69s(cpu)
        *  Thank you very much for using Q-Chem.  Have a nice day.  *
