 Q-Chem 6.0, Q-Chem, Inc., Pleasanton, CA (2022)
 Q-Chem 6.0.2 for Intel X86 EM64T Linux

User input:
--------------------------------------------------------------
$molecule
-3 6
N   -2.6690461    2.6220600    0.7742126
C   -4.1030210   -1.7871287   -0.7353220
H   -4.8113114   -2.3827663   -0.1312774
N   -2.7509547   -2.0627018   -0.2748885
H   -2.1601995   -2.4160716   -1.0265919
C   -4.2198782   -2.2697574   -2.2130859
O   -5.3568055   -2.1576245   -2.7365686
C   -2.3546707   -2.1196453    1.0117121
O   -3.0996645   -1.8138143    1.9596237
C   -1.8782082    3.6231146    1.1629468
C   -2.3422298    5.0514036    1.0426881
H   -3.3233995    5.2077668    1.5141775
H   -1.6004398    5.6947433    1.5316735
H   -2.4225889    5.3452428   -0.0161421
C   -0.9337010   -2.6112806    1.2369945
H   -0.5737005   -3.1822230    0.3716409
H   -0.9491270   -3.2647717    2.1208736
C    0.0909601   -1.4756287    1.4815707
C   -0.1466659   -0.7735466    2.8544679
C    1.5149764   -2.0811872    1.6483694
H    1.4591086   -2.9098391    2.3738019
H    2.1619366   -1.3109350    2.0947772
C    2.2000770   -2.6013996    0.3911214
O    1.6200691   -3.2187302   -0.5167362
N    3.5248573   -2.3525938    0.3698826
H    3.9999744   -1.9232441    1.1645975
C    5.8972469   -2.7509174   -0.0030296
O    6.8102407   -3.3003362   -0.6659706
N    1.9392445    2.1684635   -0.7117912
C    0.8817990    2.2546384   -1.5250812
C    1.0650735    2.5248237   -2.9920973
H    1.9900927    3.0694200   -3.2170616
H    1.0756428    1.5718446   -3.5465060
H    0.2019121    3.1072279   -3.3425688
C    3.2675959    1.7319359   -1.1580931
H    3.9611386    1.9762990   -0.3412017
H    3.5672697    2.3138996   -2.0408677
C    3.2289438    0.2292886   -1.4365021
H    2.7263052   -0.2362436   -0.5801072
H    2.5851271    0.0518155   -2.3160095
C    4.5848018   -0.4331087   -1.6770763
H    5.0707007    0.0398102   -2.5485316
H    5.2481677   -0.2526069   -0.8124426
C    4.4532768   -1.9487401   -1.9216780
H    3.5261543   -2.1502102   -2.4848362
H    5.2917680   -2.3115186   -2.5357969
C    4.4716335   -2.8007420   -0.6347118
H    4.2482973   -3.8443209   -0.9116821
C   -4.0539217    2.1341057   -1.2558950
H   -3.3967754    2.7542582   -1.8895921
H   -5.0870851    2.3088908   -1.6077595
C   -3.9967025    2.6835797    0.1780511
H   -4.6766981    2.1190139    0.8364633
H   -4.3249475    3.7302065    0.1828261
C   -3.6924613    0.6521217   -1.4516339
H   -2.6278431    0.5067172   -1.2283302
H   -3.8456847    0.4111094   -2.5189139
C   -4.5187401   -0.3109460   -0.5990810
H   -4.4347148   -0.0405253    0.4619823
H   -5.5820359   -0.2469382   -0.8843014
O   -3.1666517   -2.7130604   -2.7533677
O    6.0068692   -2.1356166    1.0970822
O    0.0487168   -0.5408541    0.4454979
Fe   -0.2063076    1.2903564    0.9434683
O   -0.0711938    0.5268847    2.8145987
O   -2.1851273    1.3621873    0.9376298
O   -0.7219003    3.3431734    1.6120716
O    1.6858385    1.8990174    0.6090867
O   -0.3040505   -1.4319617    3.8871614
O   -0.2845024    2.1088518   -1.0451670
$end

$rem
BASIS  =  gen
CIS_N_ROOTS  =  100
CORRELATION  =  TPSS
EXCHANGE  =  TPSSH
GUI  =  2
JOB_TYPE  =  SP
SCF_CONVERGENCE  =  8
SOLVENT_METHOD  =  PCM
UNRESTRICTED  =  1
MEM_TOTAL  =  30000
$end

$pcm
THEORY  CPCM
$end

$solvent
DIELECTRIC  78.39
$end

$van_der_waals
26   2.44
$end

!----------------------------------------------------------------------
! Basis Set Exchange
! Basis set: aug-cc-pVDZ
!----------------------------------------------------------------------

$rem
BASIS GEN
PURECART 11
$end

$basis
H     0
S   4   1.00
1.301000D+01           1.968500D-02
1.962000D+00           1.379770D-01
4.446000D-01           4.781480D-01
1.220000D-01           5.012400D-01
S   1   1.00
1.220000D-01           1.000000D+00
S   1   1.00
0.0297400              1.0000000
P   1   1.00
7.270000D-01           1.0000000
P   1   1.00
0.1410000              1.0000000
****
C     0
S   9   1.00
6.665000D+03           6.920000D-04
1.000000D+03           5.329000D-03
2.280000D+02           2.707700D-02
6.471000D+01           1.017180D-01
2.106000D+01           2.747400D-01
7.495000D+00           4.485640D-01
2.797000D+00           2.850740D-01
5.215000D-01           1.520400D-02
1.596000D-01          -3.191000D-03
S   9   1.00
6.665000D+03          -1.460000D-04
1.000000D+03          -1.154000D-03
2.280000D+02          -5.725000D-03
6.471000D+01          -2.331200D-02
2.106000D+01          -6.395500D-02
7.495000D+00          -1.499810D-01
2.797000D+00          -1.272620D-01
5.215000D-01           5.445290D-01
1.596000D-01           5.804960D-01
S   1   1.00
1.596000D-01           1.000000D+00
S   1   1.00
0.0469000              1.0000000
P   4   1.00
9.439000D+00           3.810900D-02
2.002000D+00           2.094800D-01
5.456000D-01           5.085570D-01
1.517000D-01           4.688420D-01
P   1   1.00
1.517000D-01           1.000000D+00
P   1   1.00
0.0404100              1.0000000
D   1   1.00
5.500000D-01           1.0000000
D   1   1.00
0.1510000              1.0000000
****
N     0
S   9   1.00
9.046000D+03           7.000000D-04
1.357000D+03           5.389000D-03
3.093000D+02           2.740600D-02
8.773000D+01           1.032070D-01
2.856000D+01           2.787230D-01
1.021000D+01           4.485400D-01
3.838000D+00           2.782380D-01
7.466000D-01           1.544000D-02
2.248000D-01          -2.864000D-03
S   9   1.00
9.046000D+03          -1.530000D-04
1.357000D+03          -1.208000D-03
3.093000D+02          -5.992000D-03
8.773000D+01          -2.454400D-02
2.856000D+01          -6.745900D-02
1.021000D+01          -1.580780D-01
3.838000D+00          -1.218310D-01
7.466000D-01           5.490030D-01
2.248000D-01           5.788150D-01
S   1   1.00
2.248000D-01           1.000000D+00
S   1   1.00
0.0612400              1.0000000
P   4   1.00
1.355000D+01           3.991900D-02
2.917000D+00           2.171690D-01
7.973000D-01           5.103190D-01
2.185000D-01           4.622140D-01
P   1   1.00
2.185000D-01           1.000000D+00
P   1   1.00
0.0561100              1.0000000
D   1   1.00
8.170000D-01           1.0000000
D   1   1.00
0.2300000              1.0000000
****
O     0
S   9   1.00
1.172000D+04           7.100000D-04
1.759000D+03           5.470000D-03
4.008000D+02           2.783700D-02
1.137000D+02           1.048000D-01
3.703000D+01           2.830620D-01
1.327000D+01           4.487190D-01
5.025000D+00           2.709520D-01
1.013000D+00           1.545800D-02
3.023000D-01          -2.585000D-03
S   9   1.00
1.172000D+04          -1.600000D-04
1.759000D+03          -1.263000D-03
4.008000D+02          -6.267000D-03
1.137000D+02          -2.571600D-02
3.703000D+01          -7.092400D-02
1.327000D+01          -1.654110D-01
5.025000D+00          -1.169550D-01
1.013000D+00           5.573680D-01
3.023000D-01           5.727590D-01
S   1   1.00
3.023000D-01           1.000000D+00
S   1   1.00
0.0789600              1.0000000
P   4   1.00
1.770000D+01           4.301800D-02
3.854000D+00           2.289130D-01
1.046000D+00           5.087280D-01
2.753000D-01           4.605310D-01
P   1   1.00
2.753000D-01           1.000000D+00
P   1   1.00
0.0685600              1.0000000
D   1   1.00
1.185000D+00           1.0000000
D   1   1.00
0.3320000              1.0000000
****
Fe     0
S   20   1.00
4.316265D+06           8.048803D-06
6.463424D+05           6.258306D-05
1.470897D+05           3.290239D-04
4.166152D+04           1.387355D-03
1.359077D+04           5.023256D-03
4.905750D+03           1.610140D-02
1.912746D+03           4.590034D-02
7.926043D+02           1.136154D-01
3.448065D+02           2.283869D-01
1.558999D+02           3.221159D-01
7.223091D+01           2.383661D-01
3.272506D+01           7.404667D-02
1.566762D+01           9.214197D-02
7.503483D+00           9.339790D-02
3.312223D+00           1.573965D-02
1.558471D+00          -4.186682D-04
6.839140D-01           5.376318D-05
1.467570D-01          -3.816654D-05
7.058300D-02           4.319603D-05
3.144900D-02          -3.401019D-06
S   20   1.00
4.316265D+06          -4.155954D-06
6.463424D+05          -3.231401D-05
1.470897D+05          -1.699525D-04
4.166152D+04          -7.171369D-04
1.359077D+04          -2.603625D-03
4.905750D+03          -8.399109D-03
1.912746D+03          -2.434109D-02
7.926043D+02          -6.251948D-02
3.448065D+02          -1.365929D-01
1.558999D+02          -2.312707D-01
7.223091D+01          -2.383734D-01
3.272506D+01           3.123837D-02
1.566762D+01           5.086818D-01
7.503483D+00           4.987695D-01
3.312223D+00           9.033552D-02
1.558471D+00          -6.005337D-03
6.839140D-01           2.312454D-04
1.467570D-01          -5.643680D-04
7.058300D-02           4.992260D-04
3.144900D-02          -1.015293D-04
S   20   1.00
4.316265D+06           9.532178D-07
6.463424D+05           7.414605D-06
1.470897D+05           3.898393D-05
4.166152D+04           1.647152D-04
1.359077D+04           5.985980D-04
4.905750D+03           1.942390D-03
1.912746D+03           5.687237D-03
7.926043D+02           1.501329D-02
3.448065D+02           3.452455D-02
1.558999D+02           6.495820D-02
7.223091D+01           7.716194D-02
3.272506D+01          -1.873411D-02
1.566762D+01          -3.009185D-01

             Standard Nuclear Orientation (Angstroms)
    I     Atom           X                Y                Z
 ----------------------------------------------------------------
    1      N      -2.6690461000     2.6220600000     0.7742126000
    2      C      -4.1030210000    -1.7871287000    -0.7353220000
    3      H      -4.8113114000    -2.3827663000    -0.1312774000
    4      N      -2.7509547000    -2.0627018000    -0.2748885000
    5      H      -2.1601995000    -2.4160716000    -1.0265919000
    6      C      -4.2198782000    -2.2697574000    -2.2130859000
    7      O      -5.3568055000    -2.1576245000    -2.7365686000
    8      C      -2.3546707000    -2.1196453000     1.0117121000
    9      O      -3.0996645000    -1.8138143000     1.9596237000
   10      C      -1.8782082000     3.6231146000     1.1629468000
   11      C      -2.3422298000     5.0514036000     1.0426881000
   12      H      -3.3233995000     5.2077668000     1.5141775000
   13      H      -1.6004398000     5.6947433000     1.5316735000
   14      H      -2.4225889000     5.3452428000    -0.0161421000
   15      C      -0.9337010000    -2.6112806000     1.2369945000
   16      H      -0.5737005000    -3.1822230000     0.3716409000
   17      H      -0.9491270000    -3.2647717000     2.1208736000
   18      C       0.0909601000    -1.4756287000     1.4815707000
   19      C      -0.1466659000    -0.7735466000     2.8544679000
   20      C       1.5149764000    -2.0811872000     1.6483694000
   21      H       1.4591086000    -2.9098391000     2.3738019000
   22      H       2.1619366000    -1.3109350000     2.0947772000
   23      C       2.2000770000    -2.6013996000     0.3911214000
   24      O       1.6200691000    -3.2187302000    -0.5167362000
   25      N       3.5248573000    -2.3525938000     0.3698826000
   26      H       3.9999744000    -1.9232441000     1.1645975000
   27      C       5.8972469000    -2.7509174000    -0.0030296000
   28      O       6.8102407000    -3.3003362000    -0.6659706000
   29      N       1.9392445000     2.1684635000    -0.7117912000
   30      C       0.8817990000     2.2546384000    -1.5250812000
   31      C       1.0650735000     2.5248237000    -2.9920973000
   32      H       1.9900927000     3.0694200000    -3.2170616000
   33      H       1.0756428000     1.5718446000    -3.5465060000
   34      H       0.2019121000     3.1072279000    -3.3425688000
   35      C       3.2675959000     1.7319359000    -1.1580931000
   36      H       3.9611386000     1.9762990000    -0.3412017000
   37      H       3.5672697000     2.3138996000    -2.0408677000
   38      C       3.2289438000     0.2292886000    -1.4365021000
   39      H       2.7263052000    -0.2362436000    -0.5801072000
   40      H       2.5851271000     0.0518155000    -2.3160095000
   41      C       4.5848018000    -0.4331087000    -1.6770763000
   42      H       5.0707007000     0.0398102000    -2.5485316000
   43      H       5.2481677000    -0.2526069000    -0.8124426000
   44      C       4.4532768000    -1.9487401000    -1.9216780000
   45      H       3.5261543000    -2.1502102000    -2.4848362000
   46      H       5.2917680000    -2.3115186000    -2.5357969000
   47      C       4.4716335000    -2.8007420000    -0.6347118000
   48      H       4.2482973000    -3.8443209000    -0.9116821000
   49      C      -4.0539217000     2.1341057000    -1.2558950000
   50      H      -3.3967754000     2.7542582000    -1.8895921000
   51      H      -5.0870851000     2.3088908000    -1.6077595000
   52      C      -3.9967025000     2.6835797000     0.1780511000
   53      H      -4.6766981000     2.1190139000     0.8364633000
   54      H      -4.3249475000     3.7302065000     0.1828261000
   55      C      -3.6924613000     0.6521217000    -1.4516339000
   56      H      -2.6278431000     0.5067172000    -1.2283302000
   57      H      -3.8456847000     0.4111094000    -2.5189139000
   58      C      -4.5187401000    -0.3109460000    -0.5990810000
   59      H      -4.4347148000    -0.0405253000     0.4619823000
   60      H      -5.5820359000    -0.2469382000    -0.8843014000
   61      O      -3.1666517000    -2.7130604000    -2.7533677000
   62      O       6.0068692000    -2.1356166000     1.0970822000
   63      O       0.0487168000    -0.5408541000     0.4454979000
   64      Fe     -0.2063076000     1.2903564000     0.9434683000
   65      O      -0.0711938000     0.5268847000     2.8145987000
   66      O      -2.1851273000     1.3621873000     0.9376298000
   67      O      -0.7219003000     3.3431734000     1.6120716000
   68      O       1.6858385000     1.8990174000     0.6090867000
   69      O      -0.3040505000    -1.4319617000     3.8871614000
   70      O      -0.2845024000     2.1088518000    -1.0451670000
 ----------------------------------------------------------------

   21   -3318.0634024598      8.79e-09  Convergence criterion met
 Total energy in the final basis set =    -3318.0634024598

         TDDFT/TDA Excitation Energies
 ---------------------------------------------------

 Excited state   1: excitation energy (eV) =    1.9015
 Total energy for state  1:                 -3317.99352292 au
    <S**2>     :  8.7778
    Trans. Mom.:  0.1390 X  -0.0909 Y  -0.0442 Z
    Strength   :     0.0013766332
    D(  159) --> S(    1) amplitude =  0.7937 beta
    D(  159) --> S(    2) amplitude = -0.5930 beta

 Excited state   2: excitation energy (eV) =    2.0157
 Total energy for state  2:                 -3317.98932576 au
    <S**2>     :  8.7836
    Trans. Mom.: -0.1515 X   0.1181 Y   0.0284 Z
    Strength   :     0.0018618335
    D(  158) --> S(    1) amplitude =  0.9670 beta
    D(  159) --> S(    1) amplitude = -0.1601 beta

 Excited state   3: excitation energy (eV) =    2.1186
 Total energy for state  3:                 -3317.98554498 au
    <S**2>     :  8.7815
    Trans. Mom.:  0.4093 X  -0.0643 Y  -0.1218 Z
    Strength   :     0.0096778020
    D(  158) --> S(    2) amplitude =  0.9627 beta

 Excited state   4: excitation energy (eV) =    2.2217
 Total energy for state  4:                 -3317.98175787 au
    <S**2>     :  8.7730
    Trans. Mom.:  0.7211 X  -0.6464 Y   0.0296 Z
    Strength   :     0.0510874221
    D(  158) --> S(    1) amplitude =  0.1697 beta
    D(  158) --> S(    3) amplitude = -0.1713 beta
    D(  159) --> S(    1) amplitude =  0.5060 beta
    D(  159) --> S(    2) amplitude =  0.7297 beta
    D(  159) --> S(    3) amplitude = -0.2868 beta

 Excited state   5: excitation energy (eV) =    2.2767
 Total energy for state  5:                 -3317.97973686 au
    <S**2>     :  8.7727
    Trans. Mom.:  0.1478 X  -0.1603 Y   0.0203 Z
    Strength   :     0.0026748853
    D(  158) --> S(    2) amplitude = -0.1705 beta
    D(  159) --> S(    1) amplitude =  0.1745 beta
    D(  159) --> S(    2) amplitude =  0.1607 beta
    D(  159) --> S(    3) amplitude =  0.9303 beta

 Excited state   6: excitation energy (eV) =    2.4346
 Total energy for state  6:                 -3317.97393213 au
    <S**2>     :  8.7711
    Trans. Mom.: -0.1752 X  -0.4564 Y   0.2284 Z
    Strength   :     0.0173628024
    D(  158) --> S(    3) amplitude =  0.9555 beta

 Excited state   7: excitation energy (eV) =    2.6324
 Total energy for state  7:                 -3317.96666281 au
    <S**2>     :  8.7781
    Trans. Mom.: -0.0278 X   0.1192 Y  -0.0743 Z
    Strength   :     0.0013224539
    D(  154) --> S(    1) amplitude = -0.2552 beta
    D(  155) --> S(    1) amplitude =  0.4292 beta
    D(  155) --> S(    2) amplitude = -0.1547 beta
    D(  157) --> S(    1) amplitude =  0.7212 beta
    D(  157) --> S(    2) amplitude = -0.2471 beta

 Excited state   8: excitation energy (eV) =    2.7666
 Total energy for state  8:                 -3317.96173005 au
    <S**2>     :  8.7774
    Trans. Mom.: -0.1028 X   0.1689 Y   0.0356 Z
    Strength   :     0.0027350796
    D(  153) --> S(    1) amplitude = -0.1811 beta
    D(  153) --> S(    2) amplitude =  0.1578 beta
    D(  154) --> S(    1) amplitude =  0.1846 beta
    D(  154) --> S(    2) amplitude = -0.2717 beta
    D(  155) --> S(    1) amplitude =  0.2940 beta
    D(  155) --> S(    2) amplitude =  0.3365 beta
    D(  157) --> S(    1) amplitude =  0.3056 beta
    D(  157) --> S(    2) amplitude =  0.6623 beta

 Excited state   9: excitation energy (eV) =    2.8208
 Total energy for state  9:                 -3317.95974102 au
    <S**2>     :  8.7757
    Trans. Mom.: -0.1846 X  -0.1402 Y   0.1000 Z
    Strength   :     0.0044017812
    D(  153) --> S(    1) amplitude =  0.2431 beta
    D(  153) --> S(    2) amplitude = -0.3561 beta
    D(  154) --> S(    1) amplitude = -0.2902 beta
    D(  154) --> S(    2) amplitude =  0.3797 beta
    D(  154) --> S(    3) amplitude = -0.1729 beta
    D(  155) --> S(    2) amplitude =  0.3937 beta
    D(  155) --> S(    3) amplitude =  0.1961 beta
    D(  156) --> S(    1) amplitude =  0.1585 beta
    D(  156) --> S(    2) amplitude = -0.2244 beta
    D(  157) --> S(    2) amplitude =  0.2778 beta
    D(  157) --> S(    3) amplitude =  0.3124 beta

 Excited state  10: excitation energy (eV) =    2.8721
 Total energy for state 10:                 -3317.95785602 au
    <S**2>     :  8.7738
    Trans. Mom.:  0.0245 X   0.0420 Y  -0.0729 Z
    Strength   :     0.0005401497
    D(  153) --> S(    1) amplitude = -0.3894 beta
    D(  153) --> S(    2) amplitude = -0.3632 beta
    D(  154) --> S(    1) amplitude =  0.4509 beta
    D(  154) --> S(    2) amplitude =  0.4510 beta
    D(  155) --> S(    1) amplitude =  0.2597 beta
    D(  155) --> S(    2) amplitude =  0.1598 beta
    D(  156) --> S(    1) amplitude = -0.2620 beta
    D(  156) --> S(    2) amplitude = -0.2295 beta

 Excited state  11: excitation energy (eV) =    3.0620
 Total energy for state 11:                 -3317.95087432 au
    <S**2>     :  8.7723
    Trans. Mom.: -0.0289 X   0.2013 Y  -0.1113 Z
    Strength   :     0.0040309962
    D(  153) --> S(    3) amplitude = -0.2510 beta
    D(  154) --> S(    3) amplitude =  0.2158 beta
    D(  155) --> S(    1) amplitude =  0.2782 beta
    D(  155) --> S(    3) amplitude =  0.5144 beta
    D(  156) --> S(    3) amplitude = -0.1852 beta
    D(  157) --> S(    1) amplitude = -0.1831 beta
    D(  157) --> S(    3) amplitude =  0.5630 beta
    D(  159) --> S(    4) amplitude = -0.1700 beta

 Excited state  12: excitation energy (eV) =    3.0871
 Total energy for state 12:                 -3317.94995501 au
    <S**2>     :  8.7801
    Trans. Mom.:  0.0310 X  -0.0682 Y   0.0415 Z
    Strength   :     0.0005547286
    D(  150) --> S(    1) amplitude = -0.1759 beta
    D(  153) --> S(    1) amplitude =  0.1525 beta
    D(  154) --> S(    1) amplitude = -0.2896 beta
    D(  155) --> S(    1) amplitude =  0.6541 beta
    D(  155) --> S(    3) amplitude = -0.1629 beta
    D(  157) --> S(    1) amplitude = -0.5645 beta
    D(  157) --> S(    3) amplitude = -0.1810 beta

 Excited state  13: excitation energy (eV) =    3.1509
 Total energy for state 13:                 -3317.94761011 au
    <S**2>     :  8.7788
    Trans. Mom.:  0.0297 X  -0.0504 Y  -0.0310 Z
    Strength   :     0.0003380608
    D(  153) --> S(    1) amplitude = -0.1826 beta
    D(  154) --> S(    1) amplitude =  0.1913 beta
    D(  154) --> S(    2) amplitude =  0.1507 beta
    D(  155) --> S(    2) amplitude = -0.4129 beta
    D(  156) --> S(    1) amplitude =  0.7286 beta
    D(  157) --> S(    2) amplitude =  0.3607 beta

 Excited state  14: excitation energy (eV) =    3.1551
 Total energy for state 14:                 -3317.94745529 au
    <S**2>     :  8.7782
    Trans. Mom.: -0.0473 X   0.0945 Y  -0.0242 Z
    Strength   :     0.0009088240
    D(  154) --> S(    2) amplitude = -0.2091 beta
    D(  155) --> S(    2) amplitude =  0.5390 beta
    D(  156) --> S(    1) amplitude =  0.5327 beta
    D(  157) --> S(    2) amplitude = -0.4608 beta
    D(  159) --> S(    4) amplitude = -0.2281 beta

 Excited state  15: excitation energy (eV) =    3.1640
 Total energy for state 15:                 -3317.94712803 au
    <S**2>     :  8.7814
    Trans. Mom.:  0.0641 X  -0.1011 Y   0.0338 Z
    Strength   :     0.0011992164
    D(  156) --> S(    1) amplitude =  0.1926 beta
    D(  159) --> S(    4) amplitude =  0.8921 beta
    D(  159) --> S(    5) amplitude =  0.2197 beta

 Excited state  16: excitation energy (eV) =    3.2206
 Total energy for state 16:                 -3317.94504590 au
    <S**2>     :  8.7759
    Trans. Mom.: -0.0200 X  -0.0155 Y  -0.0220 Z
    Strength   :     0.0000887230
    D(  153) --> S(    2) amplitude = -0.2102 beta
    D(  154) --> S(    2) amplitude =  0.2186 beta
    D(  156) --> S(    2) amplitude =  0.9309 beta

 Excited state  17: excitation energy (eV) =    3.2508
 Total energy for state 17:                 -3317.94393621 au
    <S**2>     :  8.7946
    Trans. Mom.: -0.0157 X  -0.3922 Y  -0.0150 Z
    Strength   :     0.0122907484
    D(  153) --> S(    3) amplitude = -0.3381 beta
    D(  154) --> S(    1) amplitude = -0.2331 beta
    D(  154) --> S(    3) amplitude =  0.4079 beta
    D(  155) --> S(    1) amplitude = -0.1502 beta
    D(  155) --> S(    2) amplitude =  0.2508 beta
    D(  156) --> S(    3) amplitude = -0.2168 beta
    D(  157) --> S(    3) amplitude = -0.3593 beta
    D(  158) --> S(    5) amplitude =  0.2680 beta
    D(  159) --> S(    4) amplitude = -0.1546 beta
    D(  159) --> S(    5) amplitude =  0.3999 beta

 Excited state  18: excitation energy (eV) =    3.2786
 Total energy for state 18:                 -3317.94291436 au
    <S**2>     :  8.7816
    Trans. Mom.:  0.0399 X  -0.1517 Y   0.0367 Z
    Strength   :     0.0020845073
    D(  151) --> S(    1) amplitude =  0.2088 beta
    D(  153) --> S(    1) amplitude =  0.7507 beta
    D(  154) --> S(    1) amplitude =  0.5538 beta

 Excited state  19: excitation energy (eV) =    3.2998
 Total energy for state 19:                 -3317.94213643 au
    <S**2>     :  8.8806
    Trans. Mom.: -0.0181 X  -0.0405 Y   0.0747 Z
    Strength   :     0.0006097914
    D(  158) --> S(    4) amplitude =  0.9376 beta

 Excited state  20: excitation energy (eV) =    3.3424
 Total energy for state 20:                 -3317.94057047 au
    <S**2>     :  8.8055
    Trans. Mom.: -0.0095 X   0.1038 Y  -0.0674 Z
    Strength   :     0.0012612203
    D(  152) --> S(    1) amplitude =  0.5177 beta
    D(  153) --> S(    2) amplitude = -0.4388 beta
    D(  154) --> S(    2) amplitude = -0.4075 beta
    D(  159) --> S(    4) amplitude = -0.1544 beta
    D(  159) --> S(    5) amplitude =  0.4543 beta

 Excited state  21: excitation energy (eV) =    3.3469
 Total energy for state 21:                 -3317.94040515 au
    <S**2>     :  8.7821
    Trans. Mom.: -0.0142 X   0.0513 Y  -0.0086 Z
    Strength   :     0.0002384942
    D(  151) --> S(    2) amplitude =  0.1595 beta
    D(  152) --> S(    1) amplitude =  0.6108 beta
    D(  153) --> S(    2) amplitude =  0.5657 beta
    D(  154) --> S(    2) amplitude =  0.4380 beta
    D(  159) --> S(    5) amplitude =  0.1638 beta

 Excited state  22: excitation energy (eV) =    3.3508
 Total energy for state 22:                 -3317.94026223 au
    <S**2>     :  8.8324
    Trans. Mom.:  0.0350 X   0.1946 Y  -0.0856 Z
    Strength   :     0.0038100044
    D(  152) --> S(    1) amplitude = -0.4956 beta
    D(  153) --> S(    2) amplitude =  0.2407 beta
    D(  154) --> S(    1) amplitude =  0.1705 beta
    D(  157) --> S(    3) amplitude =  0.1718 beta
    D(  159) --> S(    5) amplitude =  0.6632 beta

 Excited state  23: excitation energy (eV) =    3.4156
 Total energy for state 23:                 -3317.93788129 au
    <S**2>     :  8.7759
    Trans. Mom.:  0.0371 X   0.0084 Y  -0.0127 Z
    Strength   :     0.0001342401
    D(  152) --> S(    2) amplitude =  0.9327 beta
    D(  155) --> S(    2) amplitude =  0.1717 beta

 Excited state  24: excitation energy (eV) =    3.4202
 Total energy for state 24:                 -3317.93771164 au
    <S**2>     :  8.7807
    Trans. Mom.: -0.0058 X   0.0012 Y   0.0292 Z
    Strength   :     0.0000746402
    D(  151) --> S(    1) amplitude =  0.9476 beta
    D(  153) --> S(    1) amplitude = -0.2119 beta

 Excited state  25: excitation energy (eV) =    3.4625
 Total energy for state 25:                 -3317.93615763 au
    <S**2>     :  8.7871
    Trans. Mom.:  0.0854 X   0.1339 Y  -0.1210 Z
    Strength   :     0.0033807562
    D(  150) --> S(    3) amplitude = -0.1571 beta
    D(  154) --> S(    3) amplitude = -0.2143 beta
    D(  155) --> S(    3) amplitude =  0.6300 beta
    D(  157) --> S(    3) amplitude = -0.5276 beta
    D(  158) --> S(    5) amplitude = -0.4267 beta

 Excited state  26: excitation energy (eV) =    3.4874
 Total energy for state 26:                 -3317.93524381 au
    <S**2>     :  8.7814
    Trans. Mom.: -0.0642 X  -0.0308 Y   0.0186 Z
    Strength   :     0.0004628787
    D(  149) --> S(    1) amplitude = -0.2639 beta
    D(  150) --> S(    1) amplitude =  0.8673 beta
    D(  152) --> S(    1) amplitude = -0.2328 beta
    D(  155) --> S(    1) amplitude =  0.1703 beta

 Excited state  27: excitation energy (eV) =    3.4888
 Total energy for state 27:                 -3317.93519265 au
    <S**2>     :  8.7761
    Trans. Mom.:  0.0422 X   0.0367 Y  -0.0028 Z
    Strength   :     0.0002681997
    D(  151) --> S(    2) amplitude =  0.9513 beta
    D(  153) --> S(    2) amplitude = -0.2162 beta

 Excited state  28: excitation energy (eV) =    3.5179
 Total energy for state 28:                 -3317.93412069 au
    <S**2>     :  8.7973
    Trans. Mom.: -0.1516 X   0.0755 Y   0.1196 Z
    Strength   :     0.0037054875
    D(  155) --> S(    3) amplitude =  0.2742 beta
    D(  156) --> S(    3) amplitude =  0.8004 beta
    D(  158) --> S(    5) amplitude =  0.4829 beta

 Excited state  29: excitation energy (eV) =    3.5420
 Total energy for state 29:                 -3317.93323760 au
    <S**2>     :  8.8176
    Trans. Mom.: -0.2266 X   0.1599 Y   0.1603 Z
    Strength   :     0.0089074001
    D(  150) --> S(    2) amplitude = -0.2536 beta
    D(  153) --> S(    3) amplitude =  0.3139 beta
    D(  154) --> S(    3) amplitude = -0.3173 beta
    D(  155) --> S(    3) amplitude =  0.1628 beta
    D(  156) --> S(    3) amplitude = -0.4730 beta
    D(  158) --> S(    5) amplitude =  0.5818 beta

 Excited state  30: excitation energy (eV) =    3.5609
 Total energy for state 30:                 -3317.93254044 au
    <S**2>     :  8.7802
    Trans. Mom.: -0.0632 X   0.0587 Y   0.0948 Z
    Strength   :     0.0014346443
    D(  149) --> S(    2) amplitude = -0.2524 beta
    D(  150) --> S(    2) amplitude =  0.8472 beta
    D(  152) --> S(    2) amplitude = -0.1985 beta
    D(  158) --> S(    5) amplitude =  0.1910 beta

 Excited state  31: excitation energy (eV) =    3.6357
 Total energy for state 31:                 -3317.92979163 au
    <S**2>     :  8.7809
    Trans. Mom.:  0.0576 X  -0.0192 Y   0.0150 Z
    Strength   :     0.0003487887
    D(  145) --> S(    1) amplitude = -0.2468 beta
    D(  148) --> S(    1) amplitude =  0.5429 beta
    D(  149) --> S(    1) amplitude =  0.7036 beta
    D(  150) --> S(    1) amplitude =  0.3053 beta

 Excited state  32: excitation energy (eV) =    3.6549
 Total energy for state 32:                 -3317.92908879 au
    <S**2>     :  8.7736
    Trans. Mom.: -0.0422 X  -0.0192 Y  -0.0284 Z
    Strength   :     0.0002649043
    D(  151) --> S(    3) amplitude =  0.2299 beta
    D(  153) --> S(    3) amplitude =  0.7275 beta
    D(  154) --> S(    3) amplitude =  0.6198 beta

 Excited state  33: excitation energy (eV) =    3.6911
 Total energy for state 33:                 -3317.92775843 au
    <S**2>     :  8.7816
    Trans. Mom.: -0.0186 X  -0.0290 Y  -0.0327 Z
    Strength   :     0.0002041102
    D(  145) --> S(    1) amplitude =  0.3750 beta
    D(  145) --> S(    2) amplitude =  0.2154 beta
    D(  146) --> S(    1) amplitude = -0.1523 beta
    D(  148) --> S(    1) amplitude = -0.5297 beta
    D(  148) --> S(    2) amplitude = -0.1900 beta
    D(  149) --> S(    1) amplitude =  0.5387 beta
    D(  149) --> S(    2) amplitude = -0.2864 beta

 Excited state  34: excitation energy (eV) =    3.6970
 Total energy for state 34:                 -3317.92753975 au
    <S**2>     :  8.7785
    Trans. Mom.: -0.0209 X  -0.0082 Y  -0.0182 Z
    Strength   :     0.0000754161
    D(  144) --> S(    1) amplitude =  0.1609 beta
    D(  145) --> S(    1) amplitude =  0.2733 beta
    D(  145) --> S(    2) amplitude =  0.2833 beta
    D(  148) --> S(    1) amplitude =  0.4846 beta
    D(  148) --> S(    2) amplitude = -0.4240 beta
    D(  149) --> S(    1) amplitude = -0.2656 beta
    D(  149) --> S(    2) amplitude = -0.4448 beta
    D(  150) --> S(    2) amplitude = -0.2294 beta

 Excited state  35: excitation energy (eV) =    3.7188
 Total energy for state 35:                 -3317.92673806 au
    <S**2>     :  8.7751
    Trans. Mom.: -0.0486 X  -0.0056 Y  -0.0260 Z
    Strength   :     0.0002798531
    D(  145) --> S(    1) amplitude =  0.3530 beta
    D(  148) --> S(    2) amplitude =  0.2137 beta
    D(  149) --> S(    2) amplitude =  0.3590 beta
    D(  152) --> S(    3) amplitude =  0.7490 beta

 Excited state  36: excitation energy (eV) =    3.7237
 Total energy for state 36:                 -3317.92656047 au
    <S**2>     :  8.7807
    Trans. Mom.:  0.1000 X  -0.0549 Y   0.0636 Z
    Strength   :     0.0015558781
    D(  145) --> S(    1) amplitude = -0.5716 beta
    D(  148) --> S(    1) amplitude = -0.1986 beta
    D(  148) --> S(    2) amplitude = -0.2019 beta
    D(  149) --> S(    2) amplitude = -0.3458 beta
    D(  152) --> S(    3) amplitude =  0.5748 beta

 Excited state  37: excitation energy (eV) =    3.7605
 Total energy for state 37:                 -3317.92520516 au
    <S**2>     :  8.7894
    Trans. Mom.: -0.0318 X   0.0216 Y  -0.0355 Z
    Strength   :     0.0002521590
    D(  145) --> S(    2) amplitude = -0.1763 beta
    D(  146) --> S(    2) amplitude =  0.1728 beta
    D(  148) --> S(    2) amplitude =  0.7019 beta
    D(  149) --> S(    2) amplitude = -0.5730 beta

 Excited state  38: excitation energy (eV) =    3.7702
 Total energy for state 38:                 -3317.92484956 au
    <S**2>     : 10.2260
    Trans. Mom.: -0.0349 X  -0.0004 Y   0.1129 Z
    Strength   :     0.0012893890

 Excited state 100: excitation energy (eV) =    4.8141

                    Orbital Energies (a.u.)
 --------------------------------------------------------------

 Alpha MOs
 -- Occupied --
******** -29.9602 -25.7912 -25.7882 -25.7869 -19.0535 -19.0533 -19.0516
-19.0468 -19.0439 -19.0302 -19.0278 -19.0242 -19.0178 -19.0148 -19.0132
-19.0109 -19.0086 -14.3329 -14.3325 -14.2675 -14.2631 -10.2124 -10.2101
-10.2099 -10.2094 -10.2022 -10.1991 -10.1972 -10.1681 -10.1537 -10.1526
-10.1455 -10.1421 -10.1256 -10.1250 -10.1185 -10.1146 -10.1113 -10.1107
-10.1082 -10.1073 -10.1020 -10.0995  -3.5452  -2.3223  -2.3165  -2.3138
 -1.0517  -1.0469  -1.0215  -1.0038  -0.9999  -0.9967  -0.9915  -0.9816
 -0.9781  -0.9432  -0.9267  -0.9160  -0.9134  -0.8870  -0.8804  -0.8267
 -0.8235  -0.7710  -0.7681  -0.7483  -0.7326  -0.7236  -0.7059  -0.6993
 -0.6874  -0.6660  -0.6558  -0.6178  -0.6079  -0.5878  -0.5664  -0.5649
 -0.5352  -0.5341  -0.5224  -0.5153  -0.5085  -0.5001  -0.4913  -0.4848
 -0.4793  -0.4719  -0.4683  -0.4637  -0.4558  -0.4500  -0.4495  -0.4473
 -0.4445  -0.4385  -0.4343  -0.4303  -0.4253  -0.4191  -0.4135  -0.4125
 -0.4095  -0.4020  -0.3989  -0.3972  -0.3939  -0.3896  -0.3871  -0.3842
 -0.3824  -0.3813  -0.3796  -0.3782  -0.3767  -0.3699  -0.3693  -0.3676
 -0.3615  -0.3597  -0.3579  -0.3554  -0.3526  -0.3492  -0.3466  -0.3454
 -0.3425  -0.3394  -0.3343  -0.3328  -0.3315  -0.3243  -0.3190  -0.3135
 -0.3093  -0.3082  -0.3014  -0.3006  -0.2994  -0.2923  -0.2886  -0.2795
 -0.2668  -0.2650  -0.2615  -0.2460  -0.2419  -0.2388  -0.2372  -0.2308
 -0.2288  -0.2242  -0.2234  -0.2185  -0.2172  -0.2130  -0.2102  -0.2083
 -0.2050  -0.1949  -0.1836  -0.1770

 Beta MOs
 -- Occupied --
******** -29.8789 -25.7221 -25.7202 -25.7194 -19.0508 -19.0477 -19.0473
-19.0445 -19.0405 -19.0302 -19.0272 -19.0242 -19.0148 -19.0132 -19.0109
-19.0108 -19.0086 -14.3327 -14.3322 -14.2675 -14.2631 -10.2124 -10.2099
-10.2099 -10.2092 -10.2022 -10.1991 -10.1972 -10.1680 -10.1537 -10.1525
-10.1455 -10.1421 -10.1255 -10.1250 -10.1183 -10.1146 -10.1113 -10.1107
-10.1080 -10.1073 -10.1020 -10.0995  -3.3424  -2.1109  -2.1071  -2.1061
 -1.0470  -1.0429  -1.0184  -1.0037  -0.9999  -0.9967  -0.9914  -0.9764
 -0.9731  -0.9364  -0.9173  -0.9160  -0.9134  -0.8870  -0.8804  -0.8226
 -0.8189  -0.7706  -0.7677  -0.7463  -0.7322  -0.7228  -0.7051  -0.6982
 -0.6867  -0.6654  -0.6554  -0.6171  -0.6075  -0.5865  -0.5661  -0.5641
 -0.5350  -0.5331  -0.5177  -0.5126  -0.5063  -0.4996  -0.4862  -0.4788
 -0.4741  -0.4687  -0.4637  -0.4598  -0.4550  -0.4486  -0.4478  -0.4455
 -0.4418  -0.4370  -0.4326  -0.4287  -0.4236  -0.4174  -0.4113  -0.4091
 -0.4064  -0.3993  -0.3976  -0.3935  -0.3888  -0.3862  -0.3837  -0.3819
 -0.3808  -0.3788  -0.3781  -0.3738  -0.3718  -0.3662  -0.3654  -0.3646
 -0.3585  -0.3554  -0.3498  -0.3474  -0.3457  -0.3413  -0.3352  -0.3342
 -0.3275  -0.3230  -0.3190  -0.3103  -0.3081  -0.3035  -0.3012  -0.3006
 -0.2939  -0.2891  -0.2783  -0.2772  -0.2688  -0.2617  -0.2587  -0.2564
 -0.2504  -0.2418  -0.2390  -0.2345  -0.2309  -0.2273  -0.2238  -0.2189
 -0.2177  -0.2174  -0.2116  -0.2104  -0.2063  -0.1848  -0.1835

          Ground-State Mulliken Net Atomic Charges

     Atom                 Charge (a.u.)    Spin (a.u.)
  --------------------------------------------------------
      1 N                     0.922425       0.002302
      2 C                     0.645697      -0.001213
      3 H                    -0.370767      -0.000016
      4 N                     0.204949      -0.005676
      5 H                    -0.009026       0.000149
      6 C                     1.071591      -0.000056
      7 O                    -0.904367      -0.000004
      8 C                     0.373148       0.005848
      9 O                    -0.935567       0.000484
     10 C                    -0.676562      -0.005958
     11 C                     0.895779       0.004871
     12 H                     0.020218      -0.000501
     13 H                    -0.342052       0.000391
     14 H                     0.038820       0.001770
     15 C                     0.911904       0.002812
     16 H                    -0.419873       0.002016
     17 H                    -0.286254       0.002463
     18 C                     0.141432       0.068507
     19 C                     1.034325      -0.005314
     20 C                     0.931978      -0.002632
     21 H                    -0.223620       0.000815
     22 H                    -0.445891       0.001142
     23 C                     0.270910       0.000270
     24 O                    -0.808472      -0.000402
     25 N                     0.078008       0.000356
     26 H                     0.100995       0.000314
     27 C                     0.936437      -0.000279
     28 O                    -0.886570       0.000013
     29 N                     0.920626       0.009540
     30 C                    -0.960394      -0.009248
     31 C                     1.307046       0.003205
     32 H                    -0.136218       0.000444
     33 H                    -0.015256       0.000576
     34 H                    -0.306131       0.000246
     35 C                     0.774572      -0.002757
     36 H                    -0.533942       0.001328
     37 H                    -0.421969       0.000589
     38 C                     1.086816       0.000041
     39 H                    -0.811662       0.007808
     40 H                    -0.380515      -0.000718
     41 C                     0.815396       0.000920
     42 H                    -0.393422       0.000105
     43 H                    -0.264287      -0.000093
     44 C                     0.656557      -0.001305
     45 H                    -0.239462       0.000026
     46 H                    -0.439646      -0.000069
     47 C                     0.655638      -0.000176
     48 H                    -0.497649      -0.000059
     49 C                     0.725838       0.000761
     50 H                    -0.273380      -0.000005
     51 H                    -0.273594       0.000028
     52 C                     0.756790       0.001424
     53 H                    -0.313267       0.001621
     54 H                    -0.540550       0.002223
     55 C                     0.946630      -0.003934
     56 H                    -0.441372       0.004013
     57 H                    -0.418621       0.000865
     58 C                     0.521922       0.001722
     59 H                    -0.476605       0.000579
     60 H                    -0.402227       0.000020
     61 O                    -0.881731       0.000029
     62 O                    -0.874571      -0.000039
     63 O                    -0.826601       0.228456
     64 Fe                    1.748839       4.096712
     65 O                    -0.945058       0.095334
     66 O                    -0.778825       0.190022
     67 O                    -0.771354       0.069428
     68 O                    -1.142149       0.127110
     69 O                    -0.892209       0.016763
     70 O                    -0.533596       0.083995
  --------------------------------------------------------
  Sum of atomic charges =    -3.000000

                    Cartesian Multipole Moments
 -----------------------------------------------------------------
    Charge (ESU x 10^10)
               -14.4096
    Dipole Moment (Debye)
         X      -4.6135      Y      28.6427      Z      -6.5356
       Tot      29.7389
    Quadrupole Moments (Debye-Ang)
        XX    -518.0274     XY      14.7611     YY    -320.6931
        XZ     -49.4590     YZ     -38.1087     ZZ    -345.7014

 Total job time:  373568.13s(wall), 5621749.42s(cpu)
        *  Thank you very much for using Q-Chem.  Have a nice day.  *
