 Q-Chem 6.0, Q-Chem, Inc., Pleasanton, CA (2022)
 Q-Chem 6.0.2 for Intel X86 EM64T Linux

User input:
--------------------------------------------------------------
$molecule
-3 6
C   -1.1849119    1.7819306   -1.8843326
C   -4.3787560   -2.0292120    0.2785619
H   -5.0704015   -2.5999664    0.9263630
N   -3.0181787   -2.1944850    0.7667202
H   -2.4346101   -2.6758162    0.0759945
C   -4.4373766   -2.6635966   -1.1469127
O   -5.5534596   -2.6041225   -1.7270981
C   -2.5425591   -1.8389608    1.9765511
O   -3.2326218   -1.2509446    2.8335959
N   -1.9687464    2.3820601   -0.9893650
C   -1.0961519   -2.2206358    2.2426309
H   -0.7875510   -3.0618914    1.6030573
H   -1.0242055   -2.5296583    3.2954214
C   -0.1015921   -1.0604248    2.0122789
C   -0.2564878    0.0645046    3.0772000
C    1.3541578   -1.5956503    2.2352644
H    1.3814015   -2.1778116    3.1674977
H    2.0156106   -0.7226848    2.3450657
C    1.9026363   -2.4701685    1.1117811
O    1.8364723   -3.7170175    1.1415574
N    2.4769768   -1.7628546    0.1192333
H    2.4502593   -0.7389651    0.2321568
C    4.8780164   -2.0704998   -0.5239592
O    5.7021906   -2.4529058   -1.4021365
C    2.3790086    3.0584140   -0.1983031
N    2.8992132    1.8319812   -0.1153049
C    4.1227867    1.2642102   -0.6978239
H    4.4124582    0.4449605   -0.0227574
H    4.9095359    2.0305675   -0.6605114
C    3.1256878    4.1698644   -0.8760533
H    3.1737386    5.0305733   -0.1919839
H    4.1408923    3.8899917   -1.1806353
C    3.9450307    0.7697212   -2.1442610
H    3.7920474    1.6617660   -2.7760172
H    4.9073489    0.3264515   -2.4553775
C    2.7847355   -0.2106835   -2.4239809
H    1.9101306    0.0828020   -1.8237558
H    2.4815242   -0.0500452   -3.4734842
C    3.0366699   -1.7261836   -2.2907757
H    2.1263299   -2.2296843   -2.6620404
H    3.8694934   -2.0291405   -2.9457197
C    3.3681053   -2.2875613   -0.8945258
H    3.2149504   -3.3784840   -0.9218099
C   -4.2870271    1.8273613   -0.3681381
H   -4.1835279    2.0576637    0.7047967
H   -5.3288846    2.0589569   -0.6498605
C   -1.5678440    1.6905665   -3.3351046
H   -2.0994247    2.5832742   -3.6895185
H   -0.6461785    1.5612704   -3.9173088
C   -3.9766821    0.3463832   -0.5915190
H   -2.9228386    0.1638275   -0.3209705
H   -4.0871826    0.0911075   -1.6613989
C   -4.8602562   -0.5685744    0.2560947
H   -4.8852956   -0.1942052    1.2916116
H   -5.8913028   -0.5780619   -0.1326516
O   -3.3625867   -3.1701586   -1.5898867
O    5.1427190   -1.5549902    0.6003827
O   -0.2598391   -0.5187900    0.7364151
Fe    0.1555953    1.3541029    0.5993932
O   -0.1557053    1.2757157    2.5896008
O   -0.0812912    1.2783441   -1.4816019
O   -1.5562550    2.3680914    0.3111228
O    1.2232284    3.2593969    0.3043976
O   -0.3760529   -0.1933324    4.2814547
O    2.1086249    0.9127167    0.5103063
H   -2.2115845    0.8112107   -3.5004775
H    2.5580475    4.4817204   -1.7669908
C   -3.3690745    2.7620538   -1.1654574
H   -3.4836387    3.8038938   -0.8273849
H   -3.5955124    2.7202708   -2.2381645
$end

$rem
BASIS  =  gen
CORRELATION  =  TPSS
DFT_D  =  D3_BJ
EXCHANGE  =  TPSSH
GUI  =  2
JOB_TYPE  =  Optimization
SCF_CONVERGENCE  =  8
SOLVENT_METHOD  =  PCM
GEOM_OPT_MAX_CYCLES = 200
$end

$pcm
THEORY  CPCM
$end

$solvent
DIELECTRIC  78.39
$end

$van_der_waals
26   2.44
$end

!----------------------------------------------------------------------
! Basis Set Exchange
! Basis set: cc-pVDZ
!----------------------------------------------------------------------

$rem
BASIS GEN
PURECART 11
$end

$basis
H     0
S   4   1.00
1.301000D+01           1.968500D-02
1.962000D+00           1.379770D-01
4.446000D-01           4.781480D-01
1.220000D-01           5.012400D-01
S   1   1.00
1.220000D-01           1.000000D+00
P   1   1.00
7.270000D-01           1.0000000
****
C     0
S   9   1.00
6.665000D+03           6.920000D-04
1.000000D+03           5.329000D-03
2.280000D+02           2.707700D-02
6.471000D+01           1.017180D-01
2.106000D+01           2.747400D-01
7.495000D+00           4.485640D-01
2.797000D+00           2.850740D-01
5.215000D-01           1.520400D-02
1.596000D-01          -3.191000D-03
S   9   1.00
6.665000D+03          -1.460000D-04
1.000000D+03          -1.154000D-03
2.280000D+02          -5.725000D-03
6.471000D+01          -2.331200D-02
2.106000D+01          -6.395500D-02
7.495000D+00          -1.499810D-01
2.797000D+00          -1.272620D-01
5.215000D-01           5.445290D-01
1.596000D-01           5.804960D-01
S   1   1.00
1.596000D-01           1.000000D+00
P   4   1.00
9.439000D+00           3.810900D-02
2.002000D+00           2.094800D-01
5.456000D-01           5.085570D-01
1.517000D-01           4.688420D-01
P   1   1.00
1.517000D-01           1.000000D+00
D   1   1.00
5.500000D-01           1.0000000
****
N     0
S   9   1.00
9.046000D+03           7.000000D-04
1.357000D+03           5.389000D-03
3.093000D+02           2.740600D-02
8.773000D+01           1.032070D-01
2.856000D+01           2.787230D-01
1.021000D+01           4.485400D-01
3.838000D+00           2.782380D-01
7.466000D-01           1.544000D-02
2.248000D-01          -2.864000D-03
S   9   1.00
9.046000D+03          -1.530000D-04
1.357000D+03          -1.208000D-03
3.093000D+02          -5.992000D-03
8.773000D+01          -2.454400D-02
2.856000D+01          -6.745900D-02
1.021000D+01          -1.580780D-01
3.838000D+00          -1.218310D-01
7.466000D-01           5.490030D-01
2.248000D-01           5.788150D-01
S   1   1.00
2.248000D-01           1.000000D+00
P   4   1.00
1.355000D+01           3.991900D-02
2.917000D+00           2.171690D-01
7.973000D-01           5.103190D-01
2.185000D-01           4.622140D-01
P   1   1.00
2.185000D-01           1.000000D+00
D   1   1.00
8.170000D-01           1.0000000
****
O     0
S   9   1.00
1.172000D+04           7.100000D-04
1.759000D+03           5.470000D-03
4.008000D+02           2.783700D-02
1.137000D+02           1.048000D-01
3.703000D+01           2.830620D-01
1.327000D+01           4.487190D-01
5.025000D+00           2.709520D-01
1.013000D+00           1.545800D-02
3.023000D-01          -2.585000D-03
S   9   1.00
1.172000D+04          -1.600000D-04
1.759000D+03          -1.263000D-03
4.008000D+02          -6.267000D-03
1.137000D+02          -2.571600D-02
3.703000D+01          -7.092400D-02
1.327000D+01          -1.654110D-01
5.025000D+00          -1.169550D-01
1.013000D+00           5.573680D-01
3.023000D-01           5.727590D-01
S   1   1.00
3.023000D-01           1.000000D+00
P   4   1.00
1.770000D+01           4.301800D-02
3.854000D+00           2.289130D-01
1.046000D+00           5.087280D-01
2.753000D-01           4.605310D-01
P   1   1.00
2.753000D-01           1.000000D+00
D   1   1.00
1.185000D+00           1.0000000
****
Fe     0
S   20   1.00
4.316265D+06           8.048803D-06
6.463424D+05           6.258306D-05
1.470897D+05           3.290239D-04
4.166152D+04           1.387355D-03
1.359077D+04           5.023256D-03
4.905750D+03           1.610140D-02
1.912746D+03           4.590034D-02
7.926043D+02           1.136154D-01
3.448065D+02           2.283869D-01
1.558999D+02           3.221159D-01
7.223091D+01           2.383661D-01
3.272506D+01           7.404667D-02
1.566762D+01           9.214197D-02
7.503483D+00           9.339790D-02
3.312223D+00           1.573965D-02
1.558471D+00          -4.186682D-04
6.839140D-01           5.376318D-05
1.467570D-01          -3.816654D-05
7.058300D-02           4.319603D-05
3.144900D-02          -3.401019D-06
S   20   1.00
4.316265D+06          -4.155954D-06
6.463424D+05          -3.231401D-05
1.470897D+05          -1.699525D-04
4.166152D+04          -7.171369D-04
1.359077D+04          -2.603625D-03
4.905750D+03          -8.399109D-03
1.912746D+03          -2.434109D-02
7.926043D+02          -6.251948D-02
3.448065D+02          -1.365929D-01
1.558999D+02          -2.312707D-01
7.223091D+01          -2.383734D-01
3.272506D+01           3.123837D-02
1.566762D+01           5.086818D-01
7.503483D+00           4.987695D-01
3.312223D+00           9.033552D-02
1.558471D+00          -6.005337D-03
6.839140D-01           2.312454D-04
1.467570D-01          -5.643680D-04
7.058300D-02           4.992260D-04
3.144900D-02          -1.015293D-04
S   20   1.00
4.316265D+06           9.532178D-07
6.463424D+05           7.414605D-06
1.470897D+05           3.898393D-05
4.166152D+04           1.647152D-04
1.359077D+04           5.985980D-04
4.905750D+03           1.942390D-03
1.912746D+03           5.687237D-03
7.926043D+02           1.501329D-02
3.448065D+02           3.452455D-02
1.558999D+02           6.495820D-02
7.223091D+01           7.716194D-02
3.272506D+01          -1.873411D-02
1.566762D+01          -3.009185D-01
7.503483D+00          -4.554661D-01
3.312223D+00           1.286463D-01
1.558471D+00           7.183316D-01
6.839140D-01           4.051743D-01
1.467570D-01           2.168227D-02
7.058300D-02          -8.343566D-03
3.144900D-02           3.658979D-03
S   20   1.00
4.316265D+06          -2.063008D-07
6.463424D+05          -1.604169D-06
1.470897D+05          -8.438437D-06
4.166152D+04          -3.563151D-05
1.359077D+04          -1.295998D-04
4.905750D+03          -4.201534D-04
1.912746D+03          -1.231954D-03
7.926043D+02          -3.248922D-03
3.448065D+02          -7.493717D-03
1.558999D+02          -1.410102D-02
7.223091D+01          -1.691600D-02
3.272506D+01           4.218996D-03
1.566762D+01           6.833810D-02
7.503483D+00           1.098201D-01
3.312223D+00          -4.009005D-02

   21   -3318.0234420451      4.72e-09  Convergence criterion met
 Total energy in the final basis set =    -3318.0234420451
   17   -3318.0234478634      7.15e-09  Convergence criterion met
 Total energy in the final basis set =    -3318.0234478634
   17   -3318.0234597618      5.52e-09  Convergence criterion met
 Total energy in the final basis set =    -3318.0234597618
   17   -3318.0234636371      6.56e-09  Convergence criterion met
 Total energy in the final basis set =    -3318.0234636371
   17   -3318.0234720563      5.40e-09  Convergence criterion met
 Total energy in the final basis set =    -3318.0234720563
   17   -3318.0234786382      5.54e-09  Convergence criterion met
 Total energy in the final basis set =    -3318.0234786382
   17   -3318.0234827307      5.76e-09  Convergence criterion met
 Total energy in the final basis set =    -3318.0234827307
   17   -3318.0234867404      6.27e-09  Convergence criterion met
   17   -3318.0235037476      5.61e-09  Convergence criterion met
 Total energy in the final basis set =    -3318.0235037476
   17   -3318.0235080749      5.79e-09  Convergence criterion met
 Total energy in the final basis set =    -3318.0235080749
   17   -3318.0235115306      5.90e-09  Convergence criterion met
 Total energy in the final basis set =    -3318.0235115306
   17   -3318.0235146907      6.10e-09  Convergence criterion met
 Total energy in the final basis set =    -3318.0235146907
   17   -3318.0235236097      6.40e-09  Convergence criterion met
 Total energy in the final basis set =    -3318.0235236097
   17   -3318.0235249240      6.89e-09  Convergence criterion met
 Total energy in the final basis set =    -3318.0235249240
   17   -3318.0235257691      7.56e-09  Convergence criterion met
 Total energy in the final basis set =    -3318.0235257691

                    Orbital Energies (a.u.)
 --------------------------------------------------------------

 Alpha MOs
 -- Occupied --
******** -29.9590 -25.7897 -25.7870 -25.7863 -19.0557 -19.0486 -19.0480
-19.0428 -19.0335 -19.0102 -19.0090 -19.0076 -19.0052 -18.9843 -18.9768
-18.9753 -18.9735 -14.3331 -14.3329 -14.2528 -14.2400 -10.2132 -10.2125
-10.2021 -10.1956 -10.1904 -10.1785 -10.1714 -10.1614 -10.1566 -10.1511
-10.1329 -10.1287 -10.1282 -10.1271 -10.1156 -10.1143 -10.1080 -10.1079
-10.1043 -10.1039 -10.1033 -10.1019  -3.5413  -2.3177  -2.3126  -2.3106
 -1.0529  -1.0488  -1.0080  -0.9800  -0.9793  -0.9762  -0.9740  -0.9694
 -0.9621  -0.9342  -0.9165  -0.8877  -0.8780  -0.8668  -0.8641  -0.8261
 -0.8232  -0.7652  -0.7600  -0.7402  -0.7270  -0.7190  -0.7026  -0.6975
 -0.6828  -0.6607  -0.6500  -0.6103  -0.6002  -0.5812  -0.5606  -0.5492
 -0.5336  -0.5238  -0.5199  -0.5028  -0.4979  -0.4914  -0.4829  -0.4786
 -0.4725  -0.4718  -0.4648  -0.4585  -0.4531  -0.4445  -0.4412  -0.4357
 -0.4294  -0.4233  -0.4211  -0.4171  -0.4119  -0.4103  -0.4052  -0.4040
 -0.3999  -0.3974  -0.3919  -0.3862  -0.3834  -0.3819  -0.3800  -0.3789
 -0.3753  -0.3738  -0.3696  -0.3649  -0.3627  -0.3607  -0.3577  -0.3559
 -0.3517  -0.3494  -0.3469  -0.3461  -0.3435  -0.3402  -0.3391  -0.3371
 -0.3332  -0.3319  -0.3281  -0.3251  -0.3189  -0.3127  -0.3102  -0.3026
 -0.2996  -0.2984  -0.2966  -0.2922  -0.2917  -0.2863  -0.2842  -0.2765
 -0.2632  -0.2596  -0.2560  -0.2381  -0.2271  -0.2243  -0.2184  -0.2120
 -0.2090  -0.2053  -0.2029  -0.2010  -0.1965  -0.1958  -0.1877  -0.1850
 -0.1843  -0.1809  -0.1765  -0.1719

 Beta MOs
 -- Occupied --
******** -29.8779 -25.7207 -25.7192 -25.7189 -19.0510 -19.0454 -19.0433
-19.0403 -19.0298 -19.0096 -19.0076 -19.0052 -19.0018 -18.9843 -18.9768
-18.9753 -18.9735 -14.3328 -14.3325 -14.2528 -14.2399 -10.2133 -10.2124
-10.2020 -10.1956 -10.1904 -10.1785 -10.1714 -10.1613 -10.1565 -10.1511
-10.1329 -10.1286 -10.1281 -10.1271 -10.1156 -10.1143 -10.1078 -10.1077
-10.1043 -10.1039 -10.1033 -10.1019  -3.3387  -2.1063  -2.1038  -2.1031
 -1.0486  -1.0444  -1.0042  -0.9800  -0.9748  -0.9735  -0.9705  -0.9693
 -0.9620  -0.9257  -0.9083  -0.8877  -0.8780  -0.8668  -0.8640  -0.8218
 -0.8192  -0.7648  -0.7596  -0.7381  -0.7266  -0.7180  -0.7018  -0.6964
 -0.6823  -0.6603  -0.6497  -0.6096  -0.5998  -0.5797  -0.5601  -0.5481
 -0.5323  -0.5211  -0.5181  -0.5001  -0.4951  -0.4863  -0.4808  -0.4727
 -0.4701  -0.4677  -0.4612  -0.4530  -0.4500  -0.4426  -0.4392  -0.4340
 -0.4262  -0.4219  -0.4204  -0.4149  -0.4103  -0.4086  -0.4036  -0.4004
 -0.3972  -0.3910  -0.3855  -0.3826  -0.3810  -0.3803  -0.3779  -0.3759
 -0.3733  -0.3668  -0.3658  -0.3594  -0.3588  -0.3546  -0.3530  -0.3510
 -0.3495  -0.3452  -0.3415  -0.3378  -0.3347  -0.3330  -0.3259  -0.3207
 -0.3170  -0.3137  -0.3033  -0.3005  -0.2983  -0.2969  -0.2960  -0.2925
 -0.2871  -0.2848  -0.2753  -0.2726  -0.2666  -0.2611  -0.2491  -0.2487
 -0.2456  -0.2260  -0.2190  -0.2170  -0.2110  -0.2092  -0.2030  -0.2015
 -0.1958  -0.1935  -0.1866  -0.1846  -0.1817  -0.1810  -0.1724

          Ground-State Mulliken Net Atomic Charges

     Atom                 Charge (a.u.)    Spin (a.u.)
  --------------------------------------------------------
      1 C                     0.147903       0.001699
      2 C                    -0.033887      -0.000004
      3 H                     0.016824       0.000012
      4 N                    -0.137949      -0.000011
      5 H                     0.094440       0.000078
      6 C                     0.135352      -0.000004
      7 O                    -0.466349       0.000004
      8 C                     0.166056       0.000091
      9 O                    -0.400109       0.000433
     10 N                    -0.055012       0.013408
     11 C                     0.096637       0.005849
     12 H                     0.019407      -0.000051
     13 H                     0.019681       0.002449
     14 C                    -0.108502       0.006244
     15 C                     0.269606       0.005113
     16 C                     0.062907       0.009015
     17 H                     0.018030       0.000265
     18 H                     0.037548       0.000140
     19 C                     0.129262       0.000016
     20 O                    -0.411643       0.000651
     21 N                    -0.128482       0.001492
     22 H                     0.161147       0.001459
     23 C                     0.143831       0.000017
     24 O                    -0.466092       0.000029
     25 C                     0.152507       0.008383
     26 N                    -0.049038       0.011004
     27 C                     0.075795       0.001342
     28 H                     0.038196       0.000762
     29 H                     0.055830       0.001164
     30 C                    -0.010024       0.003026
     31 H                     0.068629       0.000340
     32 H                     0.062538       0.000732
     33 C                    -0.032775       0.000600
     34 H                     0.028477      -0.000050
     35 H                     0.023951       0.000322
     36 C                    -0.104500      -0.000192
     37 H                     0.091022       0.001278
     38 H                     0.017960       0.000118
     39 C                     0.021634       0.000016
     40 H                     0.013055      -0.000012
     41 H                    -0.000536       0.000017
     42 C                    -0.041053       0.000046
     43 H                     0.006347       0.000125
     44 C                    -0.058768       0.000993
     45 H                     0.038376       0.000260
     46 H                     0.031628      -0.000272
     47 C                    -0.017032       0.004128
     48 H                     0.078257       0.000631
     49 H                     0.064580       0.000370
     50 C                    -0.104631      -0.000185
     51 H                     0.080948       0.001092
     52 H                     0.025839      -0.000008
     53 C                     0.018147      -0.000034
     54 H                     0.007091      -0.000007
     55 H                     0.005347      -0.000003
     56 O                    -0.461567       0.000017
     57 O                    -0.456103       0.000128
     58 O                    -0.479160       0.226493
     59 Fe                    0.591447       4.142688
     60 O                    -0.419443       0.102750
     61 O                    -0.381054       0.083461
     62 O                    -0.444411       0.134994
     63 O                    -0.380411       0.064526
     64 O                    -0.385296       0.023362
     65 O                    -0.470031       0.132478
     66 H                     0.084885       0.000022
     67 H                     0.080660       0.000348
     68 C                     0.115658       0.001793
     69 H                     0.046690       0.000627
     70 H                     0.059734       0.001934
  --------------------------------------------------------
  Sum of atomic charges =    -3.000000

                    Cartesian Multipole Moments
 -----------------------------------------------------------------
    Charge (ESU x 10^10)
               -14.4096
    Dipole Moment (Debye)
         X      -1.1653      Y      25.2165      Z     -12.9473
       Tot      28.3701
    Quadrupole Moments (Debye-Ang)
        XX    -458.1395     XY       9.9141     YY    -325.3941
        XZ      -3.9717     YZ     -37.7849     ZZ    -315.5714

 Final energy is -3318.023525769105
	**  OPTIMIZATION CONVERGED  **

             Standard Nuclear Orientation (Angstroms)
    I     Atom           X                Y                Z
 ----------------------------------------------------------------
    1      C      -1.1690422224     1.7876231871    -1.8806618253
    2      C      -4.3976432841    -2.0395405106     0.2903919173
    3      H      -5.1007890356    -2.6009348573     0.9343307386
    4      N      -3.0421049128    -2.2194405906     0.7891581723
    5      H      -2.4668551143    -2.7251072525     0.1084178898
    6      C      -4.4536677838    -2.6834065306    -1.1310773365
    7      O      -5.5648082399    -2.6149482322    -1.7195092665
    8      C      -2.5436555133    -1.8052885258     1.9708455136
    9      O      -3.2071851899    -1.1556788307     2.8039635908
   10      N      -1.9642713415     2.3752934391    -0.9879823567
   11      C      -1.1027830577    -2.2064252331     2.2407276897
   12      H      -0.8033502339    -3.0532802562     1.6042996345
   13      H      -1.0370753174    -2.5134947961     3.2947669661
   14      C      -0.0983145770    -1.0556645308     2.0104015265
   15      C      -0.2391531849     0.0638642067     3.0825229188
   16      C       1.3530423889    -1.6054222835     2.2243383783
   17      H       1.3762824659    -2.1962123558     3.1510233176
   18      H       2.0228785389    -0.7396153758     2.3398604478
   19      C       1.8925080269    -2.4742394399     1.0929104905
   20      O       1.8273056055    -3.7211557182     1.1175721179
   21      N       2.4594765028    -1.7624926694     0.0985685778
   22      H       2.4418029423    -0.7398297770     0.2236079164
   23      C       4.8651888502    -2.0673441862    -0.5256013481
   24      O       5.6973959728    -2.4418616541    -1.3996575739
   25      C       2.3835753471     3.0601532799    -0.1865747891
   26      N       2.9019499929     1.8329046457    -0.1072804078
   27      C       4.1242996951     1.2657823883    -0.6925258152
   28      H       4.4118132374     0.4427237831    -0.0213544488
   29      H       4.9126471315     2.0306244913    -0.6515059748
   30      C       3.1274428337     4.1692364070    -0.8719057514
   31      H       3.1067854508     5.0582025191    -0.2244205647
   32      H       4.1669175041     3.9123500943    -1.1079821562
   33      C       3.9473834652     0.7801274276    -2.1421383074
   34      H       3.7980999191     1.6754193264    -2.7699362459
   35      H       4.9102907973     0.3372516813    -2.4524105221
   36      C       2.7868579157    -0.1977556494    -2.4285748504
   37      H       1.9128537698     0.0910088686    -1.8250694768
   38      H       2.4826334957    -0.0285189922    -3.4764179675
   39      C       3.0382162298    -1.7137720036    -2.3057086404
   40      H       2.1298341453    -2.2148373495    -2.6849917983
   41      H       3.8746294010    -2.0132981731    -2.9575833649
   42      C       3.3596412320    -2.2823324828    -0.9102606118
   43      H       3.2076219639    -3.3732919169    -0.9431264269
   44      C      -4.2821384116     1.8143561888    -0.3712706635
   45      H      -4.1772618166     2.0509582279     0.7001617302
   46      H      -5.3244588555     2.0441297440    -0.6528006088
   47      C      -1.5492311673     1.6941596103    -3.3328384338
   48      H      -2.0384898818     2.6068709759    -3.6982817894
   49      H      -0.6314095305     1.5181342781    -3.9083200003
   50      C      -3.9715955956     0.3320679833    -0.5866642671
   51      H      -2.9202305099     0.1490916537    -0.3072328383
   52      H      -4.0750803237     0.0732251129    -1.6564114019
   53      C      -4.8664566224    -0.5750526486     0.2575582200
   54      H      -4.8946907910    -0.1969250596     1.2912610752
   55      H      -5.8947669194    -0.5789469567    -0.1383599194
   56      O      -3.3822386860    -3.2073269492    -1.5620504622
   57      O       5.1200996086    -1.5614447128     0.6055136660
   58      O      -0.2608027860    -0.5085541382     0.7370049475
   59      Fe      0.1604540397     1.3639790782     0.6100847011
   60      O      -0.1555276602     1.2785411233     2.6001358248
   61      O      -0.0591878240     1.3002569945    -1.4756152653
   62      O      -1.5562408165     2.3697384288     0.3140849008
   63      O       1.2302842047     3.2624648382     0.3217984691
   64      O      -0.3330981441    -0.2012935195     4.2876120285
   65      O       2.1147731247     0.9152426325     0.5258217839
   66      H      -2.2321477794     0.8439849102    -3.4926678699
   67      H       2.6021616934     4.4223214484    -1.8067479406
   68      C      -3.3660865172     2.7451762221    -1.1746791897
   69      H      -3.4888403798     3.7907666699    -0.8514670469
   70      H      -3.5864382656     2.6862619923    -2.2479315272
 ----------------------------------------------------------------

 Total job time:  58199.20s(wall), 1005105.13s(cpu)
        *  Thank you very much for using Q-Chem.  Have a nice day.  *
