 Q-Chem 6.0, Q-Chem, Inc., Pleasanton, CA (2022)
 Q-Chem 6.0.2 for Intel X86 EM64T Linux

User input:
--------------------------------------------------------------
$molecule
-3 6
N   -2.6830883    2.6381712    0.8156286
C   -4.0707009   -1.7641660   -0.7753331
H   -4.7911301   -2.3690807   -0.1957638
N   -2.7268845   -2.0544971   -0.3027485
H   -2.1216225   -2.3699657   -1.0605121
C   -4.1643748   -2.2065570   -2.2684891
O   -5.3004281   -2.1039260   -2.7968943
C   -2.3424054   -2.1428351    0.9847934
O   -3.0969542   -1.8622795    1.9333858
C   -1.8705119    3.6353139    1.1627351
C   -2.2977603    5.0671723    0.9765674
H   -3.2064936    5.2969827    1.5548216
H   -1.4833833    5.7191657    1.3155889
H   -2.5126629    5.2794853   -0.0822449
C   -0.9189472   -2.6245656    1.2091963
H   -0.5487106   -3.1729583    0.3336012
H   -0.9260578   -3.2902290    2.0840204
C    0.0834647   -1.4729655    1.4631420
C   -0.1412142   -0.8010216    2.8537853
C    1.5225506   -2.0450039    1.5914266
H    1.5082501   -2.8672170    2.3271383
H    2.1625746   -1.2585318    2.0204355
C    2.2057423   -2.5630668    0.3288499
O    1.6152424   -3.0879401   -0.6283935
N    3.5472622   -2.4298847    0.3735587
H    4.0141080   -2.0088146    1.1784138
C    5.9292776   -2.7502129   -0.0024924
O    6.8594830   -3.2581016   -0.6721448
N    1.8759051    2.1507626   -0.7109795
C    0.8039798    2.1626904   -1.5094600
C    0.9313145    2.3452437   -2.9964676
H    1.9522480    2.5402773   -3.3396041
H    0.5545596    1.4368463   -3.4937243
H    0.2811606    3.1806345   -3.2992157
C    3.2156175    1.7385055   -1.1500094
H    3.9138944    2.0827452   -0.3739932
H    3.4679664    2.2511560   -2.0873201
C    3.2341757    0.2174253   -1.2932187
H    2.8373930   -0.1844757   -0.3544266
H    2.5164561   -0.0643098   -2.0841784
C    4.5899591   -0.4101184   -1.6149703
H    5.0216290    0.0964256   -2.4969193
H    5.2945875   -0.2414877   -0.7814949
C    4.4770753   -1.9199189   -1.9027096
H    3.5506639   -2.1118869   -2.4696056
H    5.3221632   -2.2530250   -2.5246626
C    4.5056635   -2.8150718   -0.6463486
H    4.3206278   -3.8555819   -0.9621624
C   -4.0481478    2.1696432   -1.2265944
H   -3.4005117    2.8082049   -1.8520064
H   -5.0831159    2.3249614   -1.5820531
C   -4.0056848    2.7029224    0.2124204
H   -4.6810305    2.1213767    0.8605341
H   -4.3428784    3.7466708    0.2388580
C   -3.6541186    0.6967295   -1.4303900
H   -2.5910653    0.5663511   -1.1874548
H   -3.7760329    0.4715525   -2.5053597
C   -4.4883774   -0.2897134   -0.6134521
H   -4.4200366   -0.0411524    0.4546004
H   -5.5488004   -0.2236186   -0.9097547
O   -3.0987353   -2.6050410   -2.8169951
O    6.0177222   -2.1613337    1.1145761
O   -0.0074667   -0.5167932    0.4505614
Fe   -0.2481424    1.3021908    0.9833825
O   -0.0850316    0.4996285    2.8345841
O   -2.2243070    1.3792702    1.0429343
O   -0.7184365    3.3395866    1.6223092
O    1.6524956    1.9242623    0.6233334
O   -0.2706672   -1.4812508    3.8773778
O   -0.3564353    2.0369813   -0.9992587
$end

$rem
BASIS  =  gen
DFT_D  =  D3_BJ
GUI  =  2
JOB_TYPE  =  Optimization
METHOD  =  B3LYP
SCF_CONVERGENCE  =  8
SOLVENT_METHOD  =  PCM
$end

$pcm
THEORY  CPCM
$end

$solvent
DIELECTRIC  78.39
$end

$van_der_waals
26   2.44
$end

!----------------------------------------------------------------------
! Basis Set Exchange
! Basis set: cc-pVDZ
!----------------------------------------------------------------------

$rem
BASIS GEN
PURECART 11
$end

$basis
H     0
S   4   1.00
1.301000D+01           1.968500D-02
1.962000D+00           1.379770D-01
4.446000D-01           4.781480D-01
1.220000D-01           5.012400D-01
S   1   1.00
1.220000D-01           1.000000D+00
P   1   1.00
7.270000D-01           1.0000000
****
C     0
S   9   1.00
6.665000D+03           6.920000D-04
1.000000D+03           5.329000D-03
2.280000D+02           2.707700D-02
6.471000D+01           1.017180D-01
2.106000D+01           2.747400D-01
7.495000D+00           4.485640D-01
2.797000D+00           2.850740D-01
5.215000D-01           1.520400D-02
1.596000D-01          -3.191000D-03
S   9   1.00
6.665000D+03          -1.460000D-04
1.000000D+03          -1.154000D-03
2.280000D+02          -5.725000D-03
6.471000D+01          -2.331200D-02
2.106000D+01          -6.395500D-02
7.495000D+00          -1.499810D-01
2.797000D+00          -1.272620D-01
5.215000D-01           5.445290D-01
1.596000D-01           5.804960D-01
S   1   1.00
1.596000D-01           1.000000D+00
P   4   1.00
9.439000D+00           3.810900D-02
2.002000D+00           2.094800D-01
5.456000D-01           5.085570D-01
1.517000D-01           4.688420D-01
P   1   1.00
1.517000D-01           1.000000D+00
D   1   1.00
5.500000D-01           1.0000000
****
N     0
S   9   1.00
9.046000D+03           7.000000D-04
1.357000D+03           5.389000D-03
3.093000D+02           2.740600D-02
8.773000D+01           1.032070D-01
2.856000D+01           2.787230D-01
1.021000D+01           4.485400D-01
3.838000D+00           2.782380D-01
7.466000D-01           1.544000D-02
2.248000D-01          -2.864000D-03
S   9   1.00
9.046000D+03          -1.530000D-04
1.357000D+03          -1.208000D-03
3.093000D+02          -5.992000D-03
8.773000D+01          -2.454400D-02
2.856000D+01          -6.745900D-02
1.021000D+01          -1.580780D-01
3.838000D+00          -1.218310D-01
7.466000D-01           5.490030D-01
2.248000D-01           5.788150D-01
S   1   1.00
2.248000D-01           1.000000D+00
P   4   1.00
1.355000D+01           3.991900D-02
2.917000D+00           2.171690D-01
7.973000D-01           5.103190D-01
2.185000D-01           4.622140D-01
P   1   1.00
2.185000D-01           1.000000D+00
D   1   1.00
8.170000D-01           1.0000000
****
O     0
S   9   1.00
1.172000D+04           7.100000D-04
1.759000D+03           5.470000D-03
4.008000D+02           2.783700D-02
1.137000D+02           1.048000D-01
3.703000D+01           2.830620D-01
1.327000D+01           4.487190D-01
5.025000D+00           2.709520D-01
1.013000D+00           1.545800D-02
3.023000D-01          -2.585000D-03
S   9   1.00
1.172000D+04          -1.600000D-04
1.759000D+03          -1.263000D-03
4.008000D+02          -6.267000D-03
1.137000D+02          -2.571600D-02
3.703000D+01          -7.092400D-02
1.327000D+01          -1.654110D-01
5.025000D+00          -1.169550D-01
1.013000D+00           5.573680D-01
3.023000D-01           5.727590D-01
S   1   1.00
3.023000D-01           1.000000D+00
P   4   1.00
1.770000D+01           4.301800D-02
3.854000D+00           2.289130D-01
1.046000D+00           5.087280D-01
2.753000D-01           4.605310D-01
P   1   1.00
2.753000D-01           1.000000D+00
D   1   1.00
1.185000D+00           1.0000000
****
Fe     0
S   20   1.00
4.316265D+06           8.048803D-06
6.463424D+05           6.258306D-05
1.470897D+05           3.290239D-04
4.166152D+04           1.387355D-03
1.359077D+04           5.023256D-03
4.905750D+03           1.610140D-02
1.912746D+03           4.590034D-02
7.926043D+02           1.136154D-01
3.448065D+02           2.283869D-01
1.558999D+02           3.221159D-01
7.223091D+01           2.383661D-01
3.272506D+01           7.404667D-02
1.566762D+01           9.214197D-02
7.503483D+00           9.339790D-02
3.312223D+00           1.573965D-02
1.558471D+00          -4.186682D-04
6.839140D-01           5.376318D-05
1.467570D-01          -3.816654D-05
7.058300D-02           4.319603D-05
3.144900D-02          -3.401019D-06
S   20   1.00
4.316265D+06          -4.155954D-06
6.463424D+05          -3.231401D-05
1.470897D+05          -1.699525D-04
4.166152D+04          -7.171369D-04
1.359077D+04          -2.603625D-03
4.905750D+03          -8.399109D-03
1.912746D+03          -2.434109D-02
7.926043D+02          -6.251948D-02
3.448065D+02          -1.365929D-01
1.558999D+02          -2.312707D-01
7.223091D+01          -2.383734D-01
3.272506D+01           3.123837D-02
1.566762D+01           5.086818D-01
7.503483D+00           4.987695D-01
3.312223D+00           9.033552D-02
1.558471D+00          -6.005337D-03
6.839140D-01           2.312454D-04
1.467570D-01          -5.643680D-04
7.058300D-02           4.992260D-04
3.144900D-02          -1.015293D-04
S   20   1.00
4.316265D+06           9.532178D-07
6.463424D+05           7.414605D-06
1.470897D+05           3.898393D-05
4.166152D+04           1.647152D-04
1.359077D+04           5.985980D-04
4.905750D+03           1.942390D-03
1.912746D+03           5.687237D-03
7.926043D+02           1.501329D-02
3.448065D+02           3.452455D-02
1.558999D+02           6.495820D-02
7.223091D+01           7.716194D-02
3.272506D+01          -1.873411D-02
1.566762D+01          -3.009185D-01
7.503483D+00          -4.554661D-01
3.312223D+00           1.286463D-01
1.558471D+00           7.183316D-01
6.839140D-01           4.051743D-01
1.467570D-01           2.168227D-02
7.058300D-02          -8.343566D-03
3.144900D-02           3.658979D-03
S   20   1.00
4.316265D+06          -2.063008D-07
6.463424D+05          -1.604169D-06
1.470897D+05          -8.438437D-06
4.166152D+04          -3.563151D-05
1.359077D+04          -1.295998D-04
4.905750D+03          -4.201534D-04
1.912746D+03          -1.231954D-03
7.926043D+02          -3.248922D-03
3.448065D+02          -7.493717D-03
1.558999D+02          -1.410102D-02
7.223091D+01          -1.691600D-02
3.272506D+01           4.218996D-03
1.566762D+01           6.833810D-02
7.503483D+00           1.098201D-01
3.312223D+00          -4.009005D-02
1.558471D+00          -2.174739D-01
6.839140D-01          -2.465135D-01

   20   -3317.9969985145      6.89e-09  Convergence criterion met
 Total energy in the final basis set =    -3317.9969985145
   17   -3317.9971518468      5.83e-09  Convergence criterion met
 Total energy in the final basis set =    -3317.9971518468
   16   -3317.9973341841      9.70e-09  Convergence criterion met
 Total energy in the final basis set =    -3317.9973341841
   17   -3317.9974281812      5.84e-09  Convergence criterion met
 Total energy in the final basis set =    -3317.9974281812
   17   -3317.9975080422      5.90e-09  Convergence criterion met
 Total energy in the final basis set =    -3317.9975080422
   17   -3317.9975768761      5.82e-09  Convergence criterion met
 Total energy in the final basis set =    -3317.9975768761
   17   -3317.9976338920      5.72e-09  Convergence criterion met
 Total energy in the final basis set =    -3317.9976338920
   17   -3317.9977004117      5.58e-09  Convergence criterion met
   17   -3317.9981046145      6.03e-09  Convergence criterion met
 Total energy in the final basis set =    -3317.9981046145
   17   -3317.9981091224      5.87e-09  Convergence criterion met
 Total energy in the final basis set =    -3317.9981091224
   17   -3317.9981135218      5.66e-09  Convergence criterion met
 Total energy in the final basis set =    -3317.9981135218
   17   -3317.9981176442      5.61e-09  Convergence criterion met
 Total energy in the final basis set =    -3317.9981176442
   17   -3317.9981214556      5.65e-09  Convergence criterion met
 Total energy in the final basis set =    -3317.9981214556
   17   -3317.9981250591      5.64e-09  Convergence criterion met
 Total energy in the final basis set =    -3317.9981250591
   17   -3317.9981243460      5.75e-09  Convergence criterion met
 Total energy in the final basis set =    -3317.9981243460

                    Orbital Energies (a.u.)
 --------------------------------------------------------------

 Alpha MOs
 -- Occupied --
******** -30.1222 -25.9763 -25.9735 -25.9723 -19.1227 -19.1173 -19.1161
-19.1149 -19.1059 -19.0915 -19.0850 -19.0827 -19.0818 -19.0606 -19.0568
-19.0537 -19.0500 -14.3984 -14.3974 -14.3254 -14.3195 -10.2798 -10.2768
-10.2690 -10.2675 -10.2598 -10.2464 -10.2431 -10.2228 -10.2156 -10.2147
-10.1962 -10.1916 -10.1891 -10.1882 -10.1762 -10.1750 -10.1714 -10.1693
-10.1686 -10.1639 -10.1591 -10.1587  -3.6042  -2.3821  -2.3770  -2.3746
 -1.0736  -1.0692  -1.0347  -1.0144  -1.0056  -1.0028  -0.9990  -0.9984
 -0.9948  -0.9574  -0.9409  -0.9152  -0.9106  -0.8965  -0.8888  -0.8460
 -0.8424  -0.7872  -0.7843  -0.7625  -0.7476  -0.7391  -0.7225  -0.7162
 -0.7028  -0.6811  -0.6700  -0.6316  -0.6209  -0.5997  -0.5792  -0.5777
 -0.5457  -0.5453  -0.5382  -0.5283  -0.5191  -0.5100  -0.5067  -0.4986
 -0.4950  -0.4888  -0.4826  -0.4787  -0.4679  -0.4664  -0.4600  -0.4568
 -0.4531  -0.4477  -0.4443  -0.4420  -0.4354  -0.4320  -0.4267  -0.4252
 -0.4234  -0.4177  -0.4138  -0.4112  -0.4060  -0.4039  -0.4026  -0.4004
 -0.3982  -0.3950  -0.3938  -0.3922  -0.3909  -0.3848  -0.3823  -0.3783
 -0.3762  -0.3739  -0.3726  -0.3684  -0.3662  -0.3653  -0.3614  -0.3587
 -0.3572  -0.3520  -0.3487  -0.3430  -0.3399  -0.3360  -0.3325  -0.3279
 -0.3224  -0.3202  -0.3144  -0.3119  -0.3102  -0.3069  -0.3005  -0.2954
 -0.2808  -0.2779  -0.2742  -0.2576  -0.2484  -0.2419  -0.2389  -0.2350
 -0.2311  -0.2288  -0.2252  -0.2231  -0.2195  -0.2156  -0.2129  -0.2083
 -0.2059  -0.2029  -0.1960  -0.1926

 Beta MOs
 -- Occupied --
******** -30.0296 -25.8983 -25.8965 -25.8958 -19.1201 -19.1127 -19.1121
-19.1119 -19.1025 -19.0915 -19.0845 -19.0827 -19.0749 -19.0606 -19.0568
-19.0537 -19.0500 -14.3982 -14.3972 -14.3254 -14.3195 -10.2799 -10.2767
-10.2690 -10.2674 -10.2598 -10.2464 -10.2431 -10.2228 -10.2155 -10.2147
-10.1962 -10.1916 -10.1890 -10.1881 -10.1762 -10.1749 -10.1714 -10.1693
-10.1686 -10.1638 -10.1591 -10.1587  -3.3887  -2.1532  -2.1501  -2.1492
 -1.0688  -1.0649  -1.0310  -1.0143  -1.0055  -0.9990  -0.9973  -0.9948
 -0.9931  -0.9490  -0.9315  -0.9152  -0.9106  -0.8965  -0.8888  -0.8416
 -0.8375  -0.7869  -0.7839  -0.7603  -0.7471  -0.7382  -0.7216  -0.7151
 -0.7022  -0.6805  -0.6697  -0.6309  -0.6205  -0.5983  -0.5788  -0.5766
 -0.5454  -0.5431  -0.5329  -0.5250  -0.5150  -0.5065  -0.5036  -0.4924
 -0.4872  -0.4843  -0.4782  -0.4717  -0.4668  -0.4623  -0.4582  -0.4549
 -0.4488  -0.4466  -0.4427  -0.4398  -0.4337  -0.4287  -0.4213  -0.4209
 -0.4158  -0.4106  -0.4075  -0.4044  -0.4027  -0.3979  -0.3963  -0.3945
 -0.3915  -0.3871  -0.3857  -0.3795  -0.3777  -0.3766  -0.3730  -0.3723
 -0.3665  -0.3655  -0.3590  -0.3585  -0.3545  -0.3489  -0.3446  -0.3403
 -0.3370  -0.3334  -0.3312  -0.3230  -0.3198  -0.3158  -0.3121  -0.3107
 -0.3073  -0.3000  -0.2924  -0.2908  -0.2824  -0.2751  -0.2681  -0.2652
 -0.2624  -0.2434  -0.2402  -0.2359  -0.2317  -0.2272  -0.2245  -0.2201
 -0.2172  -0.2147  -0.2130  -0.2059  -0.2032  -0.1958  -0.1936

          Ground-State Mulliken Net Atomic Charges

     Atom                 Charge (a.u.)    Spin (a.u.)
  --------------------------------------------------------
      1 N                    -0.025126       0.007763
      2 C                    -0.014758      -0.000021
      3 H                    -0.023914      -0.000003
      4 N                    -0.081795      -0.000146
      5 H                     0.073232       0.000030
      6 C                     0.092294       0.000022
      7 O                    -0.454744       0.000018
      8 C                     0.139837       0.000129
      9 O                    -0.389192       0.000604
     10 C                     0.123935       0.009735
     11 C                     0.016052       0.002407
     12 H                     0.064516      -0.000118
     13 H                     0.041917       0.000215
     14 H                     0.068436       0.001059
     15 C                     0.138231       0.006306
     16 H                    -0.007054      -0.000033
     17 H                    -0.008776       0.001227
     18 C                    -0.040946       0.004455
     19 C                     0.205200       0.004120
     20 C                     0.085828       0.005656
     21 H                     0.029649       0.001292
     22 H                     0.013731      -0.000029
     23 C                     0.141038      -0.000442
     24 O                    -0.364008       0.000342
     25 N                    -0.087323       0.000064
     26 H                     0.079151      -0.000063
     27 C                     0.102022      -0.000000
     28 O                    -0.445504       0.000008
     29 N                    -0.032229       0.009115
     30 C                     0.120739       0.003212
     31 C                     0.026600       0.003206
     32 H                     0.056065       0.000526
     33 H                     0.071314       0.000273
     34 H                     0.049185       0.000387
     35 C                     0.134201       0.001940
     36 H                     0.023844       0.000495
     37 H                     0.037902       0.000929
     38 C                    -0.071004       0.000436
     39 H                     0.070155       0.002127
     40 H                     0.013351      -0.000087
     41 C                     0.009285      -0.000038
     42 H                    -0.001283       0.000037
     43 H                    -0.006566      -0.000016
     44 C                     0.051388       0.000083
     45 H                    -0.011822       0.000002
     46 H                    -0.017679       0.000000
     47 C                     0.000293       0.000013
     48 H                    -0.022319       0.000016
     49 C                     0.000255       0.000227
     50 H                     0.000304      -0.000136
     51 H                     0.008594      -0.000064
     52 C                     0.124434       0.001442
     53 H                     0.035146       0.000505
     54 H                     0.032250       0.001725
     55 C                    -0.015071      -0.000284
     56 H                     0.051512       0.001429
     57 H                    -0.017977       0.000303
     58 C                     0.054956       0.000280
     59 H                    -0.009907       0.000103
     60 H                    -0.024376       0.000034
     61 O                    -0.447024       0.000008
     62 O                    -0.443669       0.000005
     63 O                    -0.492766       0.221756
     64 Fe                    0.559404       4.172041
     65 O                    -0.400810       0.097654
     66 O                    -0.441649       0.161501
     67 O                    -0.362537       0.060651
     68 O                    -0.452883       0.124249
     69 O                    -0.370413       0.019639
     70 O                    -0.361122       0.069680
  --------------------------------------------------------
  Sum of atomic charges =    -3.000000

                    Cartesian Multipole Moments
 -----------------------------------------------------------------
    Charge (ESU x 10^10)
               -14.4096
    Dipole Moment (Debye)
         X      -4.0491      Y      27.6013      Z      -6.1091
       Tot      28.5578
    Quadrupole Moments (Debye-Ang)
        XX    -503.6483     XY      14.3658     YY    -312.3746
        XZ     -45.3310     YZ     -36.7444     ZZ    -333.2337

 Final energy is -3317.998124345994
	**  OPTIMIZATION CONVERGED  **

             Standard Nuclear Orientation (Angstroms)
    I     Atom           X                Y                Z
 ----------------------------------------------------------------
    1      N      -2.6690460690     2.6220599658     0.7742125832
    2      C      -4.1030210352    -1.7871286564    -0.7353219795
    3      H      -4.8113113598    -2.3827662744    -0.1312774106
    4      N      -2.7509546812    -2.0627017759    -0.2748885164
    5      H      -2.1601995223    -2.4160716374    -1.0265919265
    6      C      -4.2198781857    -2.2697574362    -2.2130858857
    7      O      -5.3568054950    -2.1576244857    -2.7365686472
    8      C      -2.3546706603    -2.1196453188     1.0117120874
    9      O      -3.0996645318    -1.8138143173     1.9596236822
   10      C      -1.8782082006     3.6231145845     1.1629468058
   11      C      -2.3422297598     5.0514035636     1.0426880958
   12      H      -3.3233995435     5.2077668358     1.5141775457
   13      H      -1.6004397733     5.6947433349     1.5316735085
   14      H      -2.4225888814     5.3452427730    -0.0161420567
   15      C      -0.9337010121    -2.6112806148     1.2369945079
   16      H      -0.5737004930    -3.1822230007     0.3716409291
   17      H      -0.9491270356    -3.2647717016     2.1208735774
   18      C       0.0909600939    -1.4756286552     1.4815707037
   19      C      -0.1466659359    -0.7735465865     2.8544679404
   20      C       1.5149764142    -2.0811871562     1.6483693525
   21      H       1.4591086060    -2.9098390628     2.3738018588
   22      H       2.1619365543    -1.3109349687     2.0947772096
   23      C       2.2000769619    -2.6013996073     0.3911213625
   24      O       1.6200690808    -3.2187302047    -0.5167361725
   25      N       3.5248572544    -2.3525938337     0.3698825591
   26      H       3.9999744472    -1.9232440814     1.1645975325
   27      C       5.8972468581    -2.7509173686    -0.0030295622
   28      O       6.8102406932    -3.3003362362    -0.6659706149
   29      N       1.9392444957     2.1684635126    -0.7117912411
   30      C       0.8817989985     2.2546384120    -1.5250811744
   31      C       1.0650735236     2.5248236781    -2.9920973280
   32      H       1.9900926725     3.0694200243    -3.2170616056
   33      H       1.0756428075     1.5718446066    -3.5465059672
   34      H       0.2019120940     3.1072278848    -3.3425687726
   35      C       3.2675958988     1.7319358952    -1.1580930960
   36      H       3.9611386350     1.9762989971    -0.3412016998
   37      H       3.5672697043     2.3138996228    -2.0408677215
   38      C       3.2289437851     0.2292886384    -1.4365020621
   39      H       2.7263051638    -0.2362436154    -0.5801071799
   40      H       2.5851270539     0.0518154825    -2.3160095029
   41      C       4.5848017697    -0.4331087480    -1.6770762779
   42      H       5.0707007475     0.0398102045    -2.5485315814
   43      H       5.2481676914    -0.2526068559    -0.8124425838
   44      C       4.4532767803    -1.9487400926    -1.9216779814
   45      H       3.5261543448    -2.1502102141    -2.4848361740
   46      H       5.2917679509    -2.3115186403    -2.5357969131
   47      C       4.4716334943    -2.8007419968    -0.6347117532
   48      H       4.2482973346    -3.8443208539    -0.9116820589
   49      C      -4.0539217216     2.1341056959    -1.2558950236
   50      H      -3.3967753756     2.7542582177    -1.8895920592
   51      H      -5.0870851146     2.3088908205    -1.6077594555
   52      C      -3.9967025247     2.6835797118     0.1780511340
   53      H      -4.6766981274     2.1190138511     0.8364633329
   54      H      -4.3249475028     3.7302065420     0.1828261036
   55      C      -3.6924613409     0.6521217270    -1.4516338521
   56      H      -2.6278431251     0.5067172181    -1.2283302096
   57      H      -3.8456846578     0.4111094122    -2.5189139387
   58      C      -4.5187401103    -0.3109459666    -0.5990810270
   59      H      -4.4347148417    -0.0405253211     0.4619823081
   60      H      -5.5820358697    -0.2469381879    -0.8843014243
   61      O      -3.1666516735    -2.7130603962    -2.7533677500
   62      O       6.0068692361    -2.1356165504     1.0970821740
   63      O       0.0487167701    -0.5408540691     0.4454978868
   64      Fe     -0.2063075906     1.2903563801     0.9434683005
   65      O      -0.0711937917     0.5268846623     2.8145986967
   66      O      -2.1851273485     1.3621873295     0.9376297966
   67      O      -0.7219003075     3.3431733606     1.6120715537
   68      O       1.6858385442     1.8990174499     0.6090867348
   69      O      -0.3040505063    -1.4319617057     3.8871614202
   70      O      -0.2845023550     2.1088517994    -1.0451669969
 ----------------------------------------------------------------

 Total job time:  115574.68s(wall), 1635671.65s(cpu)
        *  Thank you very much for using Q-Chem.  Have a nice day.  *
