 Q-Chem 6.0, Q-Chem, Inc., Pleasanton, CA (2022)
 Q-Chem 6.0.2 for Intel X86 EM64T Linux

User input:
--------------------------------------------------------------
$molecule
-3 6
C   -1.2706972    1.8235509   -1.7893561
C   -4.1299236   -1.9963163   -0.0127680
H   -4.7976137   -2.7496113    0.4389973
N   -2.8217934   -2.0729525    0.6147971
H   -2.0624070   -2.1558900   -0.0587735
C   -3.9549161   -2.3213043   -1.5268104
O   -5.0177230   -2.4846411   -2.1750750
C   -2.5591229   -2.0123331    1.9333772
O   -3.4387735   -1.8288545    2.7934128
N   -1.9753373    2.4669082   -0.8611834
C   -1.1054757   -2.2534461    2.3091128
H   -0.7196932   -3.1145856    1.7428038
H   -1.0845974   -2.4957257    3.3787795
C   -0.1342542   -1.0748980    2.0671930
C   -0.3492285    0.0735473    3.0974844
C    1.3199832   -1.5875032    2.3563229
H    1.3146627   -2.1676594    3.2896992
H    1.9700585   -0.7123574    2.4961564
C    1.9031471   -2.4674718    1.2552137
O    1.7426029   -3.7026888    1.2379532
N    2.6074057   -1.7792510    0.3419635
H    2.5931057   -0.7593760    0.4388266
C    4.9476381   -2.0074900   -0.5061074
O    5.7095367   -2.4026829   -1.4282896
C    2.3604473    3.0390736   -0.3072621
N    2.8876830    1.8189230   -0.2030657
C    4.0574567    1.2459364   -0.8704548
H    4.4674199    0.4987473   -0.1767717
H    4.8069905    2.0410085   -0.9865360
C    3.0778223    4.1077493   -1.0845764
H    2.6964066    5.0855502   -0.7637070
H    4.1662290    4.0740515   -0.9425050
C    3.7514936    0.6319602   -2.2498586
H    3.4970495    1.4657735   -2.9260983
H    4.6967615    0.2026567   -2.6262799
C    2.6154222   -0.4100711   -2.3385851
H    1.7939799   -0.1006571   -1.6791046
H    2.2058452   -0.3438112   -3.3617119
C    2.9396205   -1.8976621   -2.1116677
H    2.0166140   -2.4602935   -2.3389196
H    3.7079287   -2.2317300   -2.8264227
C    3.4293560   -2.3284350   -0.7153749
H    3.3371699   -3.4240973   -0.6537216
C   -4.2798920    1.8996582   -0.1989945
H   -4.1235875    2.0139334    0.8854768
H   -5.3283095    2.1737422   -0.4078929
C   -1.7345488    1.7012681   -3.2119142
H   -2.3956529    2.5140776   -3.5334111
H   -0.8462267    1.6748352   -3.8575254
C   -3.9865622    0.4592556   -0.6062750
H   -2.9198089    0.2633190   -0.4193181
H   -4.1443480    0.3424074   -1.6924269
C   -4.7829039   -0.6070979    0.1410247
H   -4.8337143   -0.3649743    1.2141676
H   -5.8154428   -0.6674020   -0.2395412
O   -2.7700014   -2.3467240   -1.9701848
O    5.2814667   -1.3989289    0.5469073
O   -0.2484784   -0.5596087    0.7759779
Fe    0.1790118    1.3217061    0.6181107
O   -0.1314931    1.2657854    2.6112492
O   -0.1762726    1.2671456   -1.4439581
O   -1.5101414    2.4022606    0.4202206
O    1.2368754    3.2614843    0.2418370
O   -0.6306756   -0.1561334    4.2760965
O    2.1376539    0.9188155    0.4982149
H   -2.2685109    0.7429851   -3.3259201
H    2.8697400    3.9883999   -2.1605298
C   -3.3723485    2.8866268   -0.9473544
H   -3.4447103    3.8971617   -0.5173390
H   -3.6493693    2.9439206   -2.0066552
$end

$rem
BASIS  =  gen
DFT_D  =  D3_BJ
GUI  =  2
JOB_TYPE  =  Optimization
METHOD  =  B3LYP
SCF_CONVERGENCE  =  8
SOLVENT_METHOD  =  PCM
$end

$pcm
THEORY  CPCM
$end

$solvent
DIELECTRIC  78.39
$end

$van_der_waals
26   2.44
$end

!----------------------------------------------------------------------
! Basis Set Exchange
! Basis set: cc-pVDZ
!----------------------------------------------------------------------

$rem
BASIS GEN
PURECART 11
$end

$basis
H     0
S   4   1.00
1.301000D+01           1.968500D-02
1.962000D+00           1.379770D-01
4.446000D-01           4.781480D-01
1.220000D-01           5.012400D-01
S   1   1.00
1.220000D-01           1.000000D+00
P   1   1.00
7.270000D-01           1.0000000
****
C     0
S   9   1.00
6.665000D+03           6.920000D-04
1.000000D+03           5.329000D-03
2.280000D+02           2.707700D-02
6.471000D+01           1.017180D-01
2.106000D+01           2.747400D-01
7.495000D+00           4.485640D-01
2.797000D+00           2.850740D-01
5.215000D-01           1.520400D-02
1.596000D-01          -3.191000D-03
S   9   1.00
6.665000D+03          -1.460000D-04
1.000000D+03          -1.154000D-03
2.280000D+02          -5.725000D-03
6.471000D+01          -2.331200D-02
2.106000D+01          -6.395500D-02
7.495000D+00          -1.499810D-01
2.797000D+00          -1.272620D-01
5.215000D-01           5.445290D-01
1.596000D-01           5.804960D-01
S   1   1.00
1.596000D-01           1.000000D+00
P   4   1.00
9.439000D+00           3.810900D-02
2.002000D+00           2.094800D-01
5.456000D-01           5.085570D-01
1.517000D-01           4.688420D-01
P   1   1.00
1.517000D-01           1.000000D+00
D   1   1.00
5.500000D-01           1.0000000
****
N     0
S   9   1.00
9.046000D+03           7.000000D-04
1.357000D+03           5.389000D-03
3.093000D+02           2.740600D-02
8.773000D+01           1.032070D-01
2.856000D+01           2.787230D-01
1.021000D+01           4.485400D-01
3.838000D+00           2.782380D-01
7.466000D-01           1.544000D-02
2.248000D-01          -2.864000D-03
S   9   1.00
9.046000D+03          -1.530000D-04
1.357000D+03          -1.208000D-03
3.093000D+02          -5.992000D-03
8.773000D+01          -2.454400D-02
2.856000D+01          -6.745900D-02
1.021000D+01          -1.580780D-01
3.838000D+00          -1.218310D-01
7.466000D-01           5.490030D-01
2.248000D-01           5.788150D-01
S   1   1.00
2.248000D-01           1.000000D+00
P   4   1.00
1.355000D+01           3.991900D-02
2.917000D+00           2.171690D-01
7.973000D-01           5.103190D-01
2.185000D-01           4.622140D-01
P   1   1.00
2.185000D-01           1.000000D+00
D   1   1.00
8.170000D-01           1.0000000
****
O     0
S   9   1.00
1.172000D+04           7.100000D-04
1.759000D+03           5.470000D-03
4.008000D+02           2.783700D-02
1.137000D+02           1.048000D-01
3.703000D+01           2.830620D-01
1.327000D+01           4.487190D-01
5.025000D+00           2.709520D-01
1.013000D+00           1.545800D-02
3.023000D-01          -2.585000D-03
S   9   1.00
1.172000D+04          -1.600000D-04
1.759000D+03          -1.263000D-03
4.008000D+02          -6.267000D-03
1.137000D+02          -2.571600D-02
3.703000D+01          -7.092400D-02
1.327000D+01          -1.654110D-01
5.025000D+00          -1.169550D-01
1.013000D+00           5.573680D-01
3.023000D-01           5.727590D-01
S   1   1.00
3.023000D-01           1.000000D+00
P   4   1.00
1.770000D+01           4.301800D-02
3.854000D+00           2.289130D-01
1.046000D+00           5.087280D-01
2.753000D-01           4.605310D-01
P   1   1.00
2.753000D-01           1.000000D+00
D   1   1.00
1.185000D+00           1.0000000
****
Fe     0
S   20   1.00
4.316265D+06           8.048803D-06
6.463424D+05           6.258306D-05
1.470897D+05           3.290239D-04
4.166152D+04           1.387355D-03
1.359077D+04           5.023256D-03
4.905750D+03           1.610140D-02
1.912746D+03           4.590034D-02
7.926043D+02           1.136154D-01
3.448065D+02           2.283869D-01
1.558999D+02           3.221159D-01
7.223091D+01           2.383661D-01
3.272506D+01           7.404667D-02
1.566762D+01           9.214197D-02
7.503483D+00           9.339790D-02
3.312223D+00           1.573965D-02
1.558471D+00          -4.186682D-04
6.839140D-01           5.376318D-05
1.467570D-01          -3.816654D-05
7.058300D-02           4.319603D-05
3.144900D-02          -3.401019D-06
S   20   1.00
4.316265D+06          -4.155954D-06
6.463424D+05          -3.231401D-05
1.470897D+05          -1.699525D-04
4.166152D+04          -7.171369D-04
1.359077D+04          -2.603625D-03
4.905750D+03          -8.399109D-03
1.912746D+03          -2.434109D-02
7.926043D+02          -6.251948D-02
3.448065D+02          -1.365929D-01
1.558999D+02          -2.312707D-01
7.223091D+01          -2.383734D-01
3.272506D+01           3.123837D-02
1.566762D+01           5.086818D-01
7.503483D+00           4.987695D-01
3.312223D+00           9.033552D-02
1.558471D+00          -6.005337D-03
6.839140D-01           2.312454D-04
1.467570D-01          -5.643680D-04
7.058300D-02           4.992260D-04
3.144900D-02          -1.015293D-04
S   20   1.00
4.316265D+06           9.532178D-07
6.463424D+05           7.414605D-06
1.470897D+05           3.898393D-05
4.166152D+04           1.647152D-04
1.359077D+04           5.985980D-04
4.905750D+03           1.942390D-03
1.912746D+03           5.687237D-03
7.926043D+02           1.501329D-02
3.448065D+02           3.452455D-02
1.558999D+02           6.495820D-02
7.223091D+01           7.716194D-02
3.272506D+01          -1.873411D-02
1.566762D+01          -3.009185D-01
7.503483D+00          -4.554661D-01
3.312223D+00           1.286463D-01
1.558471D+00           7.183316D-01
6.839140D-01           4.051743D-01
1.467570D-01           2.168227D-02
7.058300D-02          -8.343566D-03
3.144900D-02           3.658979D-03
S   20   1.00
4.316265D+06          -2.063008D-07
6.463424D+05          -1.604169D-06
1.470897D+05          -8.438437D-06
4.166152D+04          -3.563151D-05
1.359077D+04          -1.295998D-04
4.905750D+03          -4.201534D-04
1.912746D+03          -1.231954D-03
7.926043D+02          -3.248922D-03
3.448065D+02          -7.493717D-03
1.558999D+02          -1.410102D-02
7.223091D+01          -1.691600D-02
3.272506D+01           4.218996D-03
1.566762D+01           6.833810D-02
7.503483D+00           1.098201D-01
3.312223D+00          -4.009005D-02
1.558471D+00          -2.174739D-01
6.839140D-01          -2.465135D-01

   20   -3318.0060824073      3.93e-09  Convergence criterion met
 Total energy in the final basis set =    -3318.0060824073
   17   -3318.0060832616      8.54e-09  Convergence criterion met
 Total energy in the final basis set =    -3318.0060832616

                    Orbital Energies (a.u.)
 --------------------------------------------------------------

 Alpha MOs
 -- Occupied --
******** -30.1284 -25.9821 -25.9794 -25.9791 -19.1303 -19.1265 -19.1224
-19.1189 -19.1104 -19.0900 -19.0857 -19.0849 -19.0833 -19.0596 -19.0524
-19.0509 -19.0492 -14.4057 -14.4017 -14.3200 -14.3124 -10.2838 -10.2806
-10.2714 -10.2625 -10.2601 -10.2453 -10.2393 -10.2262 -10.2185 -10.2105
-10.1945 -10.1904 -10.1897 -10.1895 -10.1764 -10.1760 -10.1706 -10.1673
-10.1656 -10.1650 -10.1641 -10.1638  -3.6103  -2.3879  -2.3826  -2.3815
 -1.0803  -1.0773  -1.0389  -1.0087  -1.0080  -1.0049  -1.0026  -0.9970
 -0.9912  -0.9620  -0.9447  -0.9127  -0.9050  -0.8919  -0.8912  -0.8501
 -0.8473  -0.7881  -0.7820  -0.7634  -0.7500  -0.7409  -0.7241  -0.7193
 -0.7045  -0.6828  -0.6711  -0.6323  -0.6220  -0.6038  -0.5821  -0.5710
 -0.5568  -0.5451  -0.5412  -0.5237  -0.5224  -0.5155  -0.5057  -0.5020
 -0.4953  -0.4931  -0.4884  -0.4824  -0.4749  -0.4677  -0.4615  -0.4547
 -0.4540  -0.4443  -0.4412  -0.4362  -0.4356  -0.4339  -0.4294  -0.4254
 -0.4231  -0.4205  -0.4175  -0.4124  -0.4088  -0.4068  -0.4028  -0.4021
 -0.3997  -0.3995  -0.3961  -0.3939  -0.3894  -0.3856  -0.3824  -0.3798
 -0.3777  -0.3763  -0.3737  -0.3704  -0.3689  -0.3685  -0.3662  -0.3609
 -0.3592  -0.3547  -0.3516  -0.3442  -0.3393  -0.3361  -0.3347  -0.3245
 -0.3207  -0.3187  -0.3145  -0.3119  -0.3097  -0.3066  -0.3028  -0.2998
 -0.2864  -0.2817  -0.2796  -0.2624  -0.2558  -0.2436  -0.2389  -0.2375
 -0.2335  -0.2311  -0.2247  -0.2207  -0.2194  -0.2145  -0.2105  -0.2064
 -0.2048  -0.2023  -0.2005  -0.1943

 Beta MOs
 -- Occupied --
******** -30.0358 -25.9041 -25.9026 -25.9025 -19.1257 -19.1234 -19.1179
-19.1167 -19.1068 -19.0894 -19.0856 -19.0833 -19.0781 -19.0596 -19.0524
-19.0508 -19.0492 -14.4054 -14.4015 -14.3200 -14.3124 -10.2839 -10.2806
-10.2713 -10.2625 -10.2601 -10.2453 -10.2393 -10.2261 -10.2184 -10.2104
-10.1945 -10.1903 -10.1897 -10.1894 -10.1764 -10.1760 -10.1704 -10.1671
-10.1656 -10.1650 -10.1641 -10.1638  -3.3948  -2.1587  -2.1563  -2.1557
 -1.0757  -1.0727  -1.0350  -1.0086  -1.0045  -1.0017  -0.9979  -0.9970
 -0.9912  -0.9537  -0.9352  -0.9127  -0.9050  -0.8918  -0.8910  -0.8455
 -0.8430  -0.7876  -0.7816  -0.7612  -0.7495  -0.7400  -0.7231  -0.7181
 -0.7040  -0.6824  -0.6708  -0.6315  -0.6216  -0.6021  -0.5816  -0.5698
 -0.5551  -0.5425  -0.5380  -0.5199  -0.5173  -0.5093  -0.5032  -0.4938
 -0.4917  -0.4897  -0.4830  -0.4756  -0.4711  -0.4650  -0.4597  -0.4529
 -0.4471  -0.4422  -0.4390  -0.4334  -0.4324  -0.4318  -0.4251  -0.4204
 -0.4187  -0.4113  -0.4072  -0.4043  -0.4019  -0.3998  -0.3987  -0.3965
 -0.3936  -0.3902  -0.3878  -0.3810  -0.3784  -0.3762  -0.3737  -0.3724
 -0.3699  -0.3660  -0.3629  -0.3605  -0.3549  -0.3525  -0.3445  -0.3406
 -0.3386  -0.3359  -0.3238  -0.3209  -0.3193  -0.3160  -0.3120  -0.3099
 -0.3061  -0.3035  -0.2976  -0.2944  -0.2876  -0.2824  -0.2714  -0.2707
 -0.2671  -0.2460  -0.2407  -0.2355  -0.2328  -0.2323  -0.2227  -0.2205
 -0.2150  -0.2139  -0.2062  -0.2049  -0.2016  -0.2002  -0.1945

          Ground-State Mulliken Net Atomic Charges

     Atom                 Charge (a.u.)    Spin (a.u.)
  --------------------------------------------------------
      1 C                     0.116435      -0.000826
      2 C                     0.001811       0.000044
      3 H                    -0.022511       0.000047
      4 N                    -0.078572       0.000283
      5 H                     0.086218       0.000268
      6 C                     0.088675       0.000001
      7 O                    -0.451116       0.000006
      8 C                     0.103330      -0.000263
      9 O                    -0.381935       0.000714
     10 N                    -0.019538       0.011887
     11 C                     0.133816       0.005807
     12 H                     0.003135      -0.000013
     13 H                    -0.011193       0.001874
     14 C                    -0.069464       0.003076
     15 C                     0.220135       0.003637
     16 C                     0.102554       0.007778
     17 H                    -0.000144       0.000044
     18 H                     0.013022       0.000108
     19 C                     0.090271      -0.000024
     20 O                    -0.390707       0.000432
     21 N                    -0.076728       0.001229
     22 H                     0.133020       0.001088
     23 C                     0.107036       0.000011
     24 O                    -0.449424       0.000015
     25 C                     0.119218       0.005330
     26 N                    -0.017253       0.009266
     27 C                     0.105540       0.001248
     28 H                     0.019083       0.000662
     29 H                     0.030874       0.001106
     30 C                     0.019614       0.003182
     31 H                     0.046016       0.000221
     32 H                     0.060510      -0.000100
     33 C                    -0.000208       0.000411
     34 H                     0.008301      -0.000047
     35 H                     0.001329       0.000210
     36 C                    -0.062218      -0.000627
     37 H                     0.081942       0.001726
     38 H                    -0.005727       0.000150
     39 C                     0.059477       0.000032
     40 H                    -0.009223      -0.000014
     41 H                    -0.021821       0.000011
     42 C                    -0.013367       0.000005
     43 H                    -0.017371       0.000084
     44 C                     0.000692       0.000823
     45 H                     0.018536       0.000181
     46 H                     0.011540      -0.000228
     47 C                     0.028320       0.003965
     48 H                     0.059225       0.000967
     49 H                     0.051813       0.000265
     50 C                    -0.084194      -0.000349
     51 H                     0.054019       0.000780
     52 H                     0.010507      -0.000013
     53 C                     0.064923      -0.000013
     54 H                    -0.012898      -0.000000
     55 H                    -0.012276      -0.000002
     56 O                    -0.446110       0.000043
     57 O                    -0.438992       0.000101
     58 O                    -0.486837       0.219891
     59 Fe                    0.607473       4.167124
     60 O                    -0.402780       0.105013
     61 O                    -0.374094       0.084508
     62 O                    -0.443698       0.134839
     63 O                    -0.354973       0.062401
     64 O                    -0.360214       0.020154
     65 O                    -0.480439       0.135135
     66 H                     0.065742      -0.000347
     67 H                     0.072702       0.000714
     68 C                     0.129259       0.001521
     69 H                     0.026509       0.000609
     70 H                     0.043405       0.001841
  --------------------------------------------------------
  Sum of atomic charges =    -3.000000

                    Cartesian Multipole Moments
 -----------------------------------------------------------------
    Charge (ESU x 10^10)
               -14.4096
    Dipole Moment (Debye)
         X      -2.6830      Y      24.1920      Z     -11.0103
       Tot      26.7147
    Quadrupole Moments (Debye-Ang)
        XX    -449.9096     XY      11.4506     YY    -318.5353
        XZ      -1.5045     YZ     -35.2401     ZZ    -325.7751

 Final energy is -3318.006083261578
	**  OPTIMIZATION CONVERGED  **

             Standard Nuclear Orientation (Angstroms)
    I     Atom           X                Y                Z
 ----------------------------------------------------------------
    1      C      -1.2707617709     1.8236128296    -1.7894232097
    2      C      -4.1298962093    -1.9963951448    -0.0127179114
    3      H      -4.7974824080    -2.7497767862     0.4389974043
    4      N      -2.8217107907    -2.0728405963     0.6148170171
    5      H      -2.0623225387    -2.1558393307    -0.0587300664
    6      C      -3.9548745869    -2.3214646395    -1.5266512924
    7      O      -5.0176642182    -2.4851596859    -2.1748765866
    8      C      -2.5590625123    -2.0123775443     1.9334073289
    9      O      -3.4386862412    -1.8291199355     2.7934853201
   10      N      -1.9753914809     2.4670196246    -0.8612666036
   11      C      -1.1052908207    -2.2534489360     2.3091249333
   12      H      -0.7193587404    -3.1144518504     1.7427162771
   13      H      -1.0845038351    -2.4959403145     3.3787593148
   14      C      -0.1340872751    -1.0747334105     2.0673086294
   15      C      -0.3491963908     0.0737527951     3.0975352726
   16      C       1.3200824051    -1.5873433523     2.3564147035
   17      H       1.3147301750    -2.1674503312     3.2898243610
   18      H       1.9703221147    -0.7122857499     2.4960647027
   19      C       1.9030723488    -2.4673411142     1.2551910046
   20      O       1.7426024895    -3.7025684268     1.2380636108
   21      N       2.6073669954    -1.7790786575     0.3419269397
   22      H       2.5933336820    -0.7592319471     0.4389942167
   23      C       4.9475542488    -2.0081118581    -0.5063286029
   24      O       5.7092354785    -2.4039548208    -1.4284054578
   25      C       2.3604989268     3.0390669915    -0.3072155610
   26      N       2.8875707394     1.8188741192    -0.2031069739
   27      C       4.0575186941     1.2459039802    -0.8701617166
   28      H       4.4673874616     0.4987292866    -0.1763880636
   29      H       4.8070583561     2.0410063640    -0.9861464110
   30      C       3.0780271551     4.1076787535    -1.0844936590
   31      H       2.6966633826     5.0855305062    -0.7637049571
   32      H       4.1664279602     4.0739246611    -0.9422891753
   33      C       3.7515257940     0.6321045278    -2.2496042903
   34      H       3.4971533088     1.4660664759    -2.9257053451
   35      H       4.6967289616     0.2028509341    -2.6262279139
   36      C       2.6153005165    -0.4097384419    -2.3384450849
   37      H       1.7938455894    -0.1002790011    -1.6790134233
   38      H       2.2056772627    -0.3433819295    -3.3615636653
   39      C       2.9394361192    -1.8974092976    -2.1117545921
   40      H       2.0164790708    -2.4600544866    -2.3391850967
   41      H       3.7076718440    -2.2313421518    -2.8266562910
   42      C       3.4291170824    -2.3284106586    -0.7154687718
   43      H       3.3367792472    -3.4240546890    -0.6537503417
   44      C      -4.2798859234     1.8995737381    -0.1991653903
   45      H      -4.1236673556     2.0139040461     0.8853297338
   46      H      -5.3283565442     2.1736222469    -0.4079409709
   47      C      -1.7346631865     1.7012232576    -3.2119460150
   48      H      -2.3956381942     2.5140905923    -3.5335810090
   49      H      -0.8463869535     1.6745632725    -3.8576156150
   50      C      -3.9865872121     0.4591553622    -0.6064302553
   51      H      -2.9198297611     0.2631951695    -0.4195921275
   52      H      -4.1445039501     0.3423322437    -1.6925807133
   53      C      -4.7829327698    -0.6071332618     0.1409314147
   54      H      -4.8336215456    -0.3649690869     1.2140873745
   55      H      -5.8154993217    -0.6674587580    -0.2395275871
   56      O      -2.7699738599    -2.3466033403    -1.9700560986
   57      O       5.2818001325    -1.3994982196     0.5465233583
   58      O      -0.2483398951    -0.5596158314     0.7760396294
   59      Fe      0.1789152032     1.3217754278     0.6180484585
   60      O      -0.1315048332     1.2659548736     2.6111920993
   61      O      -0.1763425399     1.2671982062    -1.4440807689
   62      O      -1.5103949060     2.4022776688     0.4201851337
   63      O       1.2368676405     3.2615294195     0.2417170122
   64      O      -0.6305450064    -0.1559147200     4.2761686205
   65      O       2.1376422854     0.9187486248     0.4982358757
   66      H      -2.2688268571     0.7430334826    -3.3258767547
   67      H       2.8700915787     3.9882928233    -2.1604749820
   68      C      -3.3724322420     2.8865965236    -0.9475093656
   69      H      -3.4448393561     3.8971381329    -0.5174492426
   70      H      -3.6493932178     2.9440107449    -2.0068328867
 ----------------------------------------------------------------

 Total job time:  6202.88s(wall), 88027.69s(cpu)
        *  Thank you very much for using Q-Chem.  Have a nice day.  *
