 Q-Chem 6.0, Q-Chem, Inc., Pleasanton, CA (2022)
 Q-Chem 6.0.2 for Intel X86 EM64T Linux

User input:
--------------------------------------------------------------
$molecule
-3 6
C   -1.2707618    1.8236128   -1.7894232
C   -4.1298962   -1.9963951   -0.0127179
H   -4.7974824   -2.7497768    0.4389974
N   -2.8217108   -2.0728406    0.6148170
H   -2.0623225   -2.1558393   -0.0587301
C   -3.9548746   -2.3214646   -1.5266513
O   -5.0176642   -2.4851597   -2.1748766
C   -2.5590625   -2.0123775    1.9334073
O   -3.4386862   -1.8291199    2.7934853
N   -1.9753915    2.4670196   -0.8612666
C   -1.1052908   -2.2534489    2.3091249
H   -0.7193587   -3.1144519    1.7427163
H   -1.0845038   -2.4959403    3.3787593
C   -0.1340873   -1.0747334    2.0673086
C   -0.3491964    0.0737528    3.0975353
C    1.3200824   -1.5873434    2.3564147
H    1.3147302   -2.1674503    3.2898244
H    1.9703221   -0.7122857    2.4960647
C    1.9030723   -2.4673411    1.2551910
O    1.7426025   -3.7025684    1.2380636
N    2.6073670   -1.7790787    0.3419269
H    2.5933337   -0.7592319    0.4389942
C    4.9475542   -2.0081119   -0.5063286
O    5.7092355   -2.4039548   -1.4284055
C    2.3604989    3.0390670   -0.3072156
N    2.8875707    1.8188741   -0.2031070
C    4.0575187    1.2459040   -0.8701617
H    4.4673875    0.4987293   -0.1763881
H    4.8070584    2.0410064   -0.9861464
C    3.0780272    4.1076788   -1.0844937
H    2.6966634    5.0855305   -0.7637050
H    4.1664280    4.0739247   -0.9422892
C    3.7515258    0.6321045   -2.2496043
H    3.4971533    1.4660665   -2.9257053
H    4.6967290    0.2028509   -2.6262279
C    2.6153005   -0.4097384   -2.3384451
H    1.7938456   -0.1002790   -1.6790134
H    2.2056773   -0.3433819   -3.3615637
C    2.9394361   -1.8974093   -2.1117546
H    2.0164791   -2.4600545   -2.3391851
H    3.7076718   -2.2313422   -2.8266563
C    3.4291171   -2.3284107   -0.7154688
H    3.3367792   -3.4240547   -0.6537503
C   -4.2798859    1.8995737   -0.1991654
H   -4.1236674    2.0139040    0.8853297
H   -5.3283565    2.1736222   -0.4079410
C   -1.7346632    1.7012233   -3.2119460
H   -2.3956382    2.5140906   -3.5335810
H   -0.8463870    1.6745633   -3.8576156
C   -3.9865872    0.4591554   -0.6064303
H   -2.9198298    0.2631952   -0.4195921
H   -4.1445040    0.3423322   -1.6925807
C   -4.7829328   -0.6071333    0.1409314
H   -4.8336215   -0.3649691    1.2140874
H   -5.8154993   -0.6674588   -0.2395276
O   -2.7699739   -2.3466033   -1.9700561
O    5.2818001   -1.3994982    0.5465234
O   -0.2483399   -0.5596158    0.7760396
Fe    0.1789152    1.3217754    0.6180485
O   -0.1315048    1.2659549    2.6111921
O   -0.1763425    1.2671982   -1.4440808
O   -1.5103949    2.4022777    0.4201851
O    1.2368676    3.2615294    0.2417170
O   -0.6305450   -0.1559147    4.2761686
O    2.1376423    0.9187486    0.4982359
H   -2.2688269    0.7430335   -3.3258768
H    2.8700916    3.9882928   -2.1604750
C   -3.3724322    2.8865965   -0.9475094
H   -3.4448394    3.8971381   -0.5174492
H   -3.6493932    2.9440107   -2.0068329
$end

$rem
BASIS  =  gen
CIS_N_ROOTS  =  100
CORRELATION  =  TPSS
EXCHANGE  =  TPSSH
GUI  =  2
JOB_TYPE  =  SP
SCF_CONVERGENCE  =  8
SOLVENT_METHOD  =  PCM
UNRESTRICTED  =  1
MEM_TOTAL  =  30000
$end

$pcm
THEORY  CPCM
$end

$solvent
DIELECTRIC  78.39
$end

$van_der_waals
26   2.44
$end

!----------------------------------------------------------------------
! Basis Set Exchange
! Basis set: aug-cc-pVDZ
!----------------------------------------------------------------------

$rem
BASIS GEN
PURECART 11
$end

$basis
H     0
S   4   1.00
1.301000D+01           1.968500D-02
1.962000D+00           1.379770D-01
4.446000D-01           4.781480D-01
1.220000D-01           5.012400D-01
S   1   1.00
1.220000D-01           1.000000D+00
S   1   1.00
0.0297400              1.0000000
P   1   1.00
7.270000D-01           1.0000000
P   1   1.00
0.1410000              1.0000000
****
C     0
S   9   1.00
6.665000D+03           6.920000D-04
1.000000D+03           5.329000D-03
2.280000D+02           2.707700D-02
6.471000D+01           1.017180D-01
2.106000D+01           2.747400D-01
7.495000D+00           4.485640D-01
2.797000D+00           2.850740D-01
5.215000D-01           1.520400D-02
1.596000D-01          -3.191000D-03
S   9   1.00
6.665000D+03          -1.460000D-04
1.000000D+03          -1.154000D-03
2.280000D+02          -5.725000D-03
6.471000D+01          -2.331200D-02
2.106000D+01          -6.395500D-02
7.495000D+00          -1.499810D-01
2.797000D+00          -1.272620D-01
5.215000D-01           5.445290D-01
1.596000D-01           5.804960D-01
S   1   1.00
1.596000D-01           1.000000D+00
S   1   1.00
0.0469000              1.0000000
P   4   1.00
9.439000D+00           3.810900D-02
2.002000D+00           2.094800D-01
5.456000D-01           5.085570D-01
1.517000D-01           4.688420D-01
P   1   1.00
1.517000D-01           1.000000D+00
P   1   1.00
0.0404100              1.0000000
D   1   1.00
5.500000D-01           1.0000000
D   1   1.00
0.1510000              1.0000000
****
N     0
S   9   1.00
9.046000D+03           7.000000D-04
1.357000D+03           5.389000D-03
3.093000D+02           2.740600D-02
8.773000D+01           1.032070D-01
2.856000D+01           2.787230D-01
1.021000D+01           4.485400D-01
3.838000D+00           2.782380D-01
7.466000D-01           1.544000D-02
2.248000D-01          -2.864000D-03
S   9   1.00
9.046000D+03          -1.530000D-04
1.357000D+03          -1.208000D-03
3.093000D+02          -5.992000D-03
8.773000D+01          -2.454400D-02
2.856000D+01          -6.745900D-02
1.021000D+01          -1.580780D-01
3.838000D+00          -1.218310D-01
7.466000D-01           5.490030D-01
2.248000D-01           5.788150D-01
S   1   1.00
2.248000D-01           1.000000D+00
S   1   1.00
0.0612400              1.0000000
P   4   1.00
1.355000D+01           3.991900D-02
2.917000D+00           2.171690D-01
7.973000D-01           5.103190D-01
2.185000D-01           4.622140D-01
P   1   1.00
2.185000D-01           1.000000D+00
P   1   1.00
0.0561100              1.0000000
D   1   1.00
8.170000D-01           1.0000000
D   1   1.00
0.2300000              1.0000000
****
O     0
S   9   1.00
1.172000D+04           7.100000D-04
1.759000D+03           5.470000D-03
4.008000D+02           2.783700D-02
1.137000D+02           1.048000D-01
3.703000D+01           2.830620D-01
1.327000D+01           4.487190D-01
5.025000D+00           2.709520D-01
1.013000D+00           1.545800D-02
3.023000D-01          -2.585000D-03
S   9   1.00
1.172000D+04          -1.600000D-04
1.759000D+03          -1.263000D-03
4.008000D+02          -6.267000D-03
1.137000D+02          -2.571600D-02
3.703000D+01          -7.092400D-02
1.327000D+01          -1.654110D-01
5.025000D+00          -1.169550D-01
1.013000D+00           5.573680D-01
3.023000D-01           5.727590D-01
S   1   1.00
3.023000D-01           1.000000D+00
S   1   1.00
0.0789600              1.0000000
P   4   1.00
1.770000D+01           4.301800D-02
3.854000D+00           2.289130D-01
1.046000D+00           5.087280D-01
2.753000D-01           4.605310D-01
P   1   1.00
2.753000D-01           1.000000D+00
P   1   1.00
0.0685600              1.0000000
D   1   1.00
1.185000D+00           1.0000000
D   1   1.00
0.3320000              1.0000000
****
Fe     0
S   20   1.00
4.316265D+06           8.048803D-06
6.463424D+05           6.258306D-05
1.470897D+05           3.290239D-04
4.166152D+04           1.387355D-03
1.359077D+04           5.023256D-03
4.905750D+03           1.610140D-02
1.912746D+03           4.590034D-02
7.926043D+02           1.136154D-01
3.448065D+02           2.283869D-01
1.558999D+02           3.221159D-01
7.223091D+01           2.383661D-01
3.272506D+01           7.404667D-02
1.566762D+01           9.214197D-02
7.503483D+00           9.339790D-02
3.312223D+00           1.573965D-02
1.558471D+00          -4.186682D-04
6.839140D-01           5.376318D-05
1.467570D-01          -3.816654D-05
7.058300D-02           4.319603D-05
3.144900D-02          -3.401019D-06
S   20   1.00
4.316265D+06          -4.155954D-06
6.463424D+05          -3.231401D-05
1.470897D+05          -1.699525D-04
4.166152D+04          -7.171369D-04
1.359077D+04          -2.603625D-03
4.905750D+03          -8.399109D-03
1.912746D+03          -2.434109D-02
7.926043D+02          -6.251948D-02
3.448065D+02          -1.365929D-01
1.558999D+02          -2.312707D-01
7.223091D+01          -2.383734D-01
3.272506D+01           3.123837D-02
1.566762D+01           5.086818D-01
7.503483D+00           4.987695D-01
3.312223D+00           9.033552D-02
1.558471D+00          -6.005337D-03
6.839140D-01           2.312454D-04
1.467570D-01          -5.643680D-04
7.058300D-02           4.992260D-04
3.144900D-02          -1.015293D-04
S   20   1.00
4.316265D+06           9.532178D-07
6.463424D+05           7.414605D-06
1.470897D+05           3.898393D-05
4.166152D+04           1.647152D-04
1.359077D+04           5.985980D-04
4.905750D+03           1.942390D-03
1.912746D+03           5.687237D-03
7.926043D+02           1.501329D-02
3.448065D+02           3.452455D-02
1.558999D+02           6.495820D-02
7.223091D+01           7.716194D-02
3.272506D+01          -1.873411D-02
1.566762D+01          -3.009185D-01

             Standard Nuclear Orientation (Angstroms)
    I     Atom           X                Y                Z
 ----------------------------------------------------------------
    1      C      -1.2707618000     1.8236128000    -1.7894232000
    2      C      -4.1298962000    -1.9963951000    -0.0127179000
    3      H      -4.7974824000    -2.7497768000     0.4389974000
    4      N      -2.8217108000    -2.0728406000     0.6148170000
    5      H      -2.0623225000    -2.1558393000    -0.0587301000
    6      C      -3.9548746000    -2.3214646000    -1.5266513000
    7      O      -5.0176642000    -2.4851597000    -2.1748766000
    8      C      -2.5590625000    -2.0123775000     1.9334073000
    9      O      -3.4386862000    -1.8291199000     2.7934853000
   10      N      -1.9753915000     2.4670196000    -0.8612666000
   11      C      -1.1052908000    -2.2534489000     2.3091249000
   12      H      -0.7193587000    -3.1144519000     1.7427163000
   13      H      -1.0845038000    -2.4959403000     3.3787593000
   14      C      -0.1340873000    -1.0747334000     2.0673086000
   15      C      -0.3491964000     0.0737528000     3.0975353000
   16      C       1.3200824000    -1.5873434000     2.3564147000
   17      H       1.3147302000    -2.1674503000     3.2898244000
   18      H       1.9703221000    -0.7122857000     2.4960647000
   19      C       1.9030723000    -2.4673411000     1.2551910000
   20      O       1.7426025000    -3.7025684000     1.2380636000
   21      N       2.6073670000    -1.7790787000     0.3419269000
   22      H       2.5933337000    -0.7592319000     0.4389942000
   23      C       4.9475542000    -2.0081119000    -0.5063286000
   24      O       5.7092355000    -2.4039548000    -1.4284055000
   25      C       2.3604989000     3.0390670000    -0.3072156000
   26      N       2.8875707000     1.8188741000    -0.2031070000
   27      C       4.0575187000     1.2459040000    -0.8701617000
   28      H       4.4673875000     0.4987293000    -0.1763881000
   29      H       4.8070584000     2.0410064000    -0.9861464000
   30      C       3.0780272000     4.1076788000    -1.0844937000
   31      H       2.6966634000     5.0855305000    -0.7637050000
   32      H       4.1664280000     4.0739247000    -0.9422892000
   33      C       3.7515258000     0.6321045000    -2.2496043000
   34      H       3.4971533000     1.4660665000    -2.9257053000
   35      H       4.6967290000     0.2028509000    -2.6262279000
   36      C       2.6153005000    -0.4097384000    -2.3384451000
   37      H       1.7938456000    -0.1002790000    -1.6790134000
   38      H       2.2056773000    -0.3433819000    -3.3615637000
   39      C       2.9394361000    -1.8974093000    -2.1117546000
   40      H       2.0164791000    -2.4600545000    -2.3391851000
   41      H       3.7076718000    -2.2313422000    -2.8266563000
   42      C       3.4291171000    -2.3284107000    -0.7154688000
   43      H       3.3367792000    -3.4240547000    -0.6537503000
   44      C      -4.2798859000     1.8995737000    -0.1991654000
   45      H      -4.1236674000     2.0139040000     0.8853297000
   46      H      -5.3283565000     2.1736222000    -0.4079410000
   47      C      -1.7346632000     1.7012233000    -3.2119460000
   48      H      -2.3956382000     2.5140906000    -3.5335810000
   49      H      -0.8463870000     1.6745633000    -3.8576156000
   50      C      -3.9865872000     0.4591554000    -0.6064303000
   51      H      -2.9198298000     0.2631952000    -0.4195921000
   52      H      -4.1445040000     0.3423322000    -1.6925807000
   53      C      -4.7829328000    -0.6071333000     0.1409314000
   54      H      -4.8336215000    -0.3649691000     1.2140874000
   55      H      -5.8154993000    -0.6674588000    -0.2395276000
   56      O      -2.7699739000    -2.3466033000    -1.9700561000
   57      O       5.2818001000    -1.3994982000     0.5465234000
   58      O      -0.2483399000    -0.5596158000     0.7760396000
   59      Fe      0.1789152000     1.3217754000     0.6180485000
   60      O      -0.1315048000     1.2659549000     2.6111921000
   61      O      -0.1763425000     1.2671982000    -1.4440808000
   62      O      -1.5103949000     2.4022777000     0.4201851000
   63      O       1.2368676000     3.2615294000     0.2417170000
   64      O      -0.6305450000    -0.1559147000     4.2761686000
   65      O       2.1376423000     0.9187486000     0.4982359000
   66      H      -2.2688269000     0.7430335000    -3.3258768000
   67      H       2.8700916000     3.9882928000    -2.1604750000
   68      C      -3.3724322000     2.8865965000    -0.9475094000
   69      H      -3.4448394000     3.8971381000    -0.5174492000
   70      H      -3.6493932000     2.9440107000    -2.0068329000
 ----------------------------------------------------------------

   21   -3318.0644988303      6.93e-09  Convergence criterion met
 Total energy in the final basis set =    -3318.0644988303

         TDDFT/TDA Excitation Energies
 ---------------------------------------------------

 Excited state   1: excitation energy (eV) =    2.0223
 Total energy for state  1:                 -3317.99018056 au
    <S**2>     :  8.7814
    Trans. Mom.: -0.0963 X   0.0224 Y   0.0087 Z
    Strength   :     0.0004878364
    D(  158) --> S(    1) amplitude =  0.1808 beta
    D(  159) --> S(    1) amplitude =  0.8378 beta
    D(  159) --> S(    2) amplitude = -0.4788 beta

 Excited state   2: excitation energy (eV) =    2.0585
 Total energy for state  2:                 -3317.98884896 au
    <S**2>     :  8.7808
    Trans. Mom.:  0.1617 X   0.0984 Y  -0.0529 Z
    Strength   :     0.0019478282
    D(  158) --> S(    1) amplitude =  0.9310 beta
    D(  158) --> S(    2) amplitude = -0.2639 beta
    D(  159) --> S(    1) amplitude = -0.1781 beta

 Excited state   3: excitation energy (eV) =    2.0786
 Total energy for state  3:                 -3317.98811088 au
    <S**2>     :  8.7852
    Trans. Mom.: -0.3810 X   0.0685 Y  -0.0239 Z
    Strength   :     0.0076587039
    D(  158) --> S(    2) amplitude = -0.1959 beta
    D(  159) --> S(    1) amplitude =  0.4860 beta
    D(  159) --> S(    2) amplitude =  0.8263 beta

 Excited state   4: excitation energy (eV) =    2.2503
 Total energy for state  4:                 -3317.98180182 au
    <S**2>     :  8.7740
    Trans. Mom.: -0.7912 X  -0.2465 Y   0.2236 Z
    Strength   :     0.0406176781
    D(  158) --> S(    1) amplitude =  0.2042 beta
    D(  158) --> S(    2) amplitude =  0.8397 beta
    D(  159) --> S(    2) amplitude =  0.2443 beta
    D(  159) --> S(    3) amplitude = -0.2911 beta

 Excited state   5: excitation energy (eV) =    2.3924
 Total energy for state  5:                 -3317.97658092 au
    <S**2>     :  8.7712
    Trans. Mom.:  0.0810 X  -0.0605 Y   0.1230 Z
    Strength   :     0.0014863842
    D(  156) --> S(    1) amplitude = -0.1715 beta
    D(  156) --> S(    2) amplitude =  0.2663 beta
    D(  158) --> S(    3) amplitude =  0.7847 beta
    D(  159) --> S(    3) amplitude =  0.4270 beta

 Excited state   6: excitation energy (eV) =    2.4558
 Total energy for state  6:                 -3317.97425107 au
    <S**2>     :  8.7766
    Trans. Mom.:  0.1062 X  -0.0689 Y   0.0762 Z
    Strength   :     0.0013143682
    D(  154) --> S(    1) amplitude =  0.2172 beta
    D(  156) --> S(    1) amplitude =  0.6055 beta
    D(  156) --> S(    2) amplitude =  0.3251 beta
    D(  157) --> S(    1) amplitude = -0.3342 beta
    D(  157) --> S(    2) amplitude = -0.1827 beta
    D(  158) --> S(    2) amplitude =  0.1535 beta
    D(  158) --> S(    3) amplitude = -0.2311 beta
    D(  159) --> S(    3) amplitude =  0.4344 beta

 Excited state   7: excitation energy (eV) =    2.4810
 Total energy for state  7:                 -3317.97332338 au
    <S**2>     :  8.7725
    Trans. Mom.:  0.1624 X  -0.6068 Y   0.4679 Z
    Strength   :     0.0372912472
    D(  156) --> S(    1) amplitude = -0.4089 beta
    D(  157) --> S(    1) amplitude =  0.2309 beta
    D(  158) --> S(    2) amplitude =  0.1547 beta
    D(  158) --> S(    3) amplitude = -0.4632 beta
    D(  159) --> S(    3) amplitude =  0.6619 beta

 Excited state   8: excitation energy (eV) =    2.5722
 Total energy for state  8:                 -3317.96997302 au
    <S**2>     :  8.7777
    Trans. Mom.:  0.2455 X   0.0667 Y  -0.0197 Z
    Strength   :     0.0041043871
    D(  154) --> S(    2) amplitude =  0.2028 beta
    D(  156) --> S(    1) amplitude = -0.2275 beta
    D(  156) --> S(    2) amplitude =  0.5922 beta
    D(  156) --> S(    3) amplitude =  0.2167 beta
    D(  157) --> S(    1) amplitude =  0.1836 beta
    D(  157) --> S(    2) amplitude = -0.4890 beta
    D(  158) --> S(    2) amplitude = -0.1949 beta
    D(  158) --> S(    3) amplitude = -0.2470 beta
    D(  159) --> S(    3) amplitude = -0.2122 beta

 Excited state   9: excitation energy (eV) =    2.6779
 Total energy for state  9:                 -3317.96608929 au
    <S**2>     :  8.7815
    Trans. Mom.:  0.0273 X   0.0471 Y  -0.0762 Z
    Strength   :     0.0005758331
    D(  156) --> S(    1) amplitude =  0.4432 beta
    D(  157) --> S(    1) amplitude =  0.8773 beta

 Excited state  10: excitation energy (eV) =    2.6964
 Total energy for state 10:                 -3317.96540969 au
    <S**2>     :  8.7768
    Trans. Mom.:  0.1034 X   0.1222 Y  -0.0211 Z
    Strength   :     0.0017230946
    D(  156) --> S(    2) amplitude =  0.5184 beta
    D(  157) --> S(    2) amplitude =  0.8232 beta

 Excited state  11: excitation energy (eV) =    2.8205
 Total energy for state 11:                 -3317.96084902 au
    <S**2>     :  8.7728
    Trans. Mom.: -0.0286 X   0.0383 Y   0.0616 Z
    Strength   :     0.0004204087
    D(  148) --> S(    1) amplitude =  0.2073 beta
    D(  150) --> S(    1) amplitude =  0.2012 beta
    D(  152) --> S(    1) amplitude =  0.3518 beta
    D(  154) --> S(    1) amplitude = -0.2752 beta
    D(  154) --> S(    3) amplitude =  0.2501 beta
    D(  156) --> S(    3) amplitude =  0.6197 beta
    D(  157) --> S(    3) amplitude = -0.3736 beta

 Excited state  12: excitation energy (eV) =    2.9220
 Total energy for state 12:                 -3317.95711622 au
    <S**2>     :  8.7761
    Trans. Mom.: -0.0282 X   0.1510 Y  -0.0661 Z
    Strength   :     0.0020025508
    D(  148) --> S(    1) amplitude = -0.2270 beta
    D(  150) --> S(    1) amplitude = -0.2231 beta
    D(  152) --> S(    1) amplitude = -0.4170 beta
    D(  152) --> S(    2) amplitude =  0.2031 beta
    D(  154) --> S(    1) amplitude =  0.5007 beta
    D(  154) --> S(    2) amplitude = -0.2205 beta
    D(  154) --> S(    3) amplitude =  0.1679 beta
    D(  156) --> S(    3) amplitude =  0.3201 beta
    D(  157) --> S(    3) amplitude = -0.3339 beta

 Excited state  13: excitation energy (eV) =    2.9562
 Total energy for state 13:                 -3317.95586000 au
    <S**2>     :  8.7817
    Trans. Mom.:  0.0060 X  -0.0038 Y   0.0034 Z
    Strength   :     0.0000044708
    D(  155) --> S(    1) amplitude =  0.9913 beta

 Excited state  14: excitation energy (eV) =    2.9640
 Total energy for state 14:                 -3317.95557352 au
    <S**2>     :  8.7765
    Trans. Mom.:  0.0128 X  -0.0595 Y   0.0128 Z
    Strength   :     0.0002803879
    D(  154) --> S(    2) amplitude = -0.1912 beta
    D(  155) --> S(    2) amplitude =  0.9602 beta

 Excited state  15: excitation energy (eV) =    2.9768
 Total energy for state 15:                 -3317.95510177 au
    <S**2>     :  8.7780
    Trans. Mom.: -0.0809 X  -0.0347 Y   0.0434 Z
    Strength   :     0.0007024988
    D(  148) --> S(    2) amplitude = -0.1877 beta
    D(  150) --> S(    2) amplitude = -0.2018 beta
    D(  152) --> S(    2) amplitude = -0.3788 beta
    D(  154) --> S(    1) amplitude =  0.2760 beta
    D(  154) --> S(    2) amplitude =  0.7170 beta
    D(  155) --> S(    2) amplitude =  0.2654 beta
    D(  156) --> S(    2) amplitude = -0.2190 beta

 Excited state  16: excitation energy (eV) =    3.0185
 Total energy for state 16:                 -3317.95357059 au
    <S**2>     :  8.7727
    Trans. Mom.:  0.0087 X   0.0486 Y  -0.0225 Z
    Strength   :     0.0002174973
    D(  154) --> S(    1) amplitude =  0.1544 beta
    D(  156) --> S(    3) amplitude =  0.4706 beta
    D(  157) --> S(    3) amplitude =  0.8399 beta

 Excited state  17: excitation energy (eV) =    3.0506
 Total energy for state 17:                 -3317.95238970 au
    <S**2>     :  8.7802
    Trans. Mom.:  0.0130 X  -0.0296 Y   0.0237 Z
    Strength   :     0.0001198927
    D(  148) --> S(    1) amplitude =  0.2474 beta
    D(  150) --> S(    1) amplitude =  0.2111 beta
    D(  151) --> S(    1) amplitude = -0.1708 beta
    D(  152) --> S(    1) amplitude =  0.4253 beta
    D(  154) --> S(    1) amplitude =  0.6480 beta
    D(  154) --> S(    2) amplitude = -0.2354 beta
    D(  156) --> S(    1) amplitude = -0.3257 beta

 Excited state  18: excitation energy (eV) =    3.1074
 Total energy for state 18:                 -3317.95030226 au
    <S**2>     :  8.7772
    Trans. Mom.:  0.0978 X   0.0293 Y  -0.0043 Z
    Strength   :     0.0007953807
    D(  148) --> S(    2) amplitude =  0.3017 beta
    D(  150) --> S(    2) amplitude =  0.2740 beta
    D(  151) --> S(    2) amplitude = -0.1924 beta
    D(  152) --> S(    1) amplitude =  0.1649 beta
    D(  152) --> S(    2) amplitude =  0.5828 beta
    D(  153) --> S(    2) amplitude =  0.2415 beta
    D(  154) --> S(    2) amplitude =  0.4697 beta
    D(  156) --> S(    2) amplitude = -0.2387 beta

 Excited state  19: excitation energy (eV) =    3.1716
 Total energy for state 19:                 -3317.94794625 au
    <S**2>     :  8.7818
    Trans. Mom.:  0.0210 X   0.0103 Y   0.0208 Z
    Strength   :     0.0000763450
    D(  153) --> S(    1) amplitude =  0.9801 beta

 Excited state  20: excitation energy (eV) =    3.1969
 Total energy for state 20:                 -3317.94701650 au
    <S**2>     :  8.7766
    Trans. Mom.: -0.0096 X  -0.0001 Y  -0.0188 Z
    Strength   :     0.0000349414
    D(  152) --> S(    2) amplitude = -0.1757 beta
    D(  153) --> S(    2) amplitude =  0.9634 beta

 Excited state  21: excitation energy (eV) =    3.2575
 Total energy for state 21:                 -3317.94478617 au
    <S**2>     :  8.7737
    Trans. Mom.:  0.0179 X  -0.2718 Y   0.1284 Z
    Strength   :     0.0072364315
    D(  148) --> S(    3) amplitude = -0.1972 beta
    D(  150) --> S(    3) amplitude = -0.2155 beta
    D(  151) --> S(    1) amplitude = -0.2561 beta
    D(  152) --> S(    3) amplitude = -0.3859 beta
    D(  154) --> S(    3) amplitude =  0.5335 beta
    D(  156) --> S(    3) amplitude = -0.1865 beta
    D(  158) --> S(    4) amplitude = -0.3244 beta
    D(  159) --> S(    4) amplitude =  0.2458 beta
    D(  159) --> S(    5) amplitude = -0.2618 beta

 Excited state  22: excitation energy (eV) =    3.2905
 Total energy for state 22:                 -3317.94357455 au
    <S**2>     :  8.7849
    Trans. Mom.:  0.0485 X   0.1217 Y  -0.0784 Z
    Strength   :     0.0018783705
    D(  151) --> S(    1) amplitude = -0.1971 beta
    D(  158) --> S(    4) amplitude = -0.3352 beta
    D(  158) --> S(    5) amplitude =  0.1662 beta
    D(  159) --> S(    4) amplitude =  0.4758 beta
    D(  159) --> S(    5) amplitude =  0.7079 beta

 Excited state  23: excitation energy (eV) =    3.2960
 Total energy for state 23:                 -3317.94337204 au
    <S**2>     :  8.7729
    Trans. Mom.:  0.0479 X   0.0291 Y  -0.0426 Z
    Strength   :     0.0003998985
    D(  155) --> S(    3) amplitude =  0.9825 beta

 Excited state  24: excitation energy (eV) =    3.3174
 Total energy for state 24:                 -3317.94258534 au
    <S**2>     :  8.7989
    Trans. Mom.:  0.0345 X  -0.0901 Y   0.0951 Z
    Strength   :     0.0014906946
    D(  151) --> S(    2) amplitude = -0.3889 beta
    D(  154) --> S(    3) amplitude = -0.2582 beta
    D(  156) --> S(    3) amplitude =  0.1709 beta
    D(  158) --> S(    5) amplitude = -0.5498 beta
    D(  159) --> S(    4) amplitude =  0.5731 beta
    D(  159) --> S(    5) amplitude = -0.1599 beta

 Excited state  25: excitation energy (eV) =    3.3300
 Total energy for state 25:                 -3317.94212272 au
    <S**2>     :  8.7799
    Trans. Mom.: -0.0013 X   0.0165 Y  -0.0977 Z
    Strength   :     0.0008007832
    D(  149) --> S(    1) amplitude =  0.1520 beta
    D(  151) --> S(    1) amplitude =  0.5398 beta
    D(  151) --> S(    2) amplitude =  0.2226 beta
    D(  154) --> S(    3) amplitude =  0.3944 beta
    D(  158) --> S(    4) amplitude =  0.4583 beta
    D(  159) --> S(    4) amplitude =  0.3730 beta
    D(  159) --> S(    5) amplitude =  0.1669 beta

 Excited state  26: excitation energy (eV) =    3.3452
 Total energy for state 26:                 -3317.94156459 au
    <S**2>     :  8.7836
    Trans. Mom.:  0.1455 X   0.0334 Y   0.0210 Z
    Strength   :     0.0018638305
    D(  151) --> S(    1) amplitude = -0.4684 beta
    D(  151) --> S(    2) amplitude =  0.3829 beta
    D(  154) --> S(    3) amplitude = -0.2390 beta
    D(  156) --> S(    3) amplitude =  0.1725 beta
    D(  158) --> S(    4) amplitude =  0.4888 beta
    D(  158) --> S(    5) amplitude =  0.1550 beta
    D(  159) --> S(    4) amplitude =  0.3340 beta
    D(  159) --> S(    5) amplitude = -0.2698 beta

 Excited state  27: excitation energy (eV) =    3.3617
 Total energy for state 27:                 -3317.94095807 au
    <S**2>     :  8.7813
    Trans. Mom.: -0.1310 X   0.0000 Y  -0.0685 Z
    Strength   :     0.0017985056
    D(  151) --> S(    1) amplitude = -0.4287 beta
    D(  151) --> S(    2) amplitude = -0.4474 beta
    D(  154) --> S(    3) amplitude =  0.3227 beta
    D(  156) --> S(    3) amplitude = -0.1603 beta
    D(  158) --> S(    4) amplitude =  0.5001 beta
    D(  159) --> S(    5) amplitude =  0.3342 beta

 Excited state  28: excitation energy (eV) =    3.3836
 Total energy for state 28:                 -3317.94015563 au
    <S**2>     :  8.7920
    Trans. Mom.:  0.3120 X  -0.0125 Y   0.0423 Z
    Strength   :     0.0082284759
    D(  151) --> S(    2) amplitude = -0.4944 beta
    D(  158) --> S(    5) amplitude =  0.7505 beta
    D(  159) --> S(    4) amplitude =  0.2627 beta
    D(  159) --> S(    5) amplitude = -0.2157 beta

 Excited state  29: excitation energy (eV) =    3.4083
 Total energy for state 29:                 -3317.93924782 au
    <S**2>     :  8.7815
    Trans. Mom.:  0.0044 X   0.0188 Y   0.0237 Z
    Strength   :     0.0000779132
    D(  150) --> S(    1) amplitude =  0.7941 beta
    D(  152) --> S(    1) amplitude = -0.5501 beta

 Excited state  30: excitation energy (eV) =    3.4350
 Total energy for state 30:                 -3317.93826630 au
    <S**2>     :  8.7768
    Trans. Mom.:  0.0136 X   0.0250 Y   0.0328 Z
    Strength   :     0.0001586999
    D(  150) --> S(    2) amplitude =  0.8217 beta
    D(  152) --> S(    2) amplitude = -0.5253 beta

 Excited state  31: excitation energy (eV) =    3.4540
 Total energy for state 31:                 -3317.93756780 au
    <S**2>     :  8.7761
    Trans. Mom.:  0.1018 X   0.2168 Y   0.0619 Z
    Strength   :     0.0051784023
    D(  148) --> S(    3) amplitude =  0.2530 beta
    D(  150) --> S(    1) amplitude = -0.1764 beta
    D(  150) --> S(    3) amplitude =  0.2523 beta
    D(  151) --> S(    2) amplitude =  0.1712 beta
    D(  152) --> S(    3) amplitude =  0.5069 beta
    D(  153) --> S(    3) amplitude =  0.2667 beta
    D(  154) --> S(    3) amplitude =  0.3781 beta
    D(  156) --> S(    4) amplitude =  0.2321 beta
    D(  158) --> S(    4) amplitude = -0.1887 beta
    D(  159) --> S(    4) amplitude =  0.1695 beta
    D(  159) --> S(    5) amplitude = -0.2435 beta

 Excited state  32: excitation energy (eV) =    3.5054
 Total energy for state 32:                 -3317.93567873 au
    <S**2>     :  8.7817
    Trans. Mom.: -0.0196 X  -0.0123 Y   0.0079 Z
    Strength   :     0.0000512303
    D(  148) --> S(    1) amplitude =  0.3196 beta
    D(  149) --> S(    1) amplitude =  0.8769 beta
    D(  150) --> S(    1) amplitude = -0.2092 beta
    D(  151) --> S(    1) amplitude = -0.2281 beta

 Excited state  33: excitation energy (eV) =    3.5105
 Total energy for state 33:                 -3317.93548997 au
    <S**2>     :  8.7725
    Trans. Mom.:  0.0302 X  -0.0505 Y  -0.0087 Z
    Strength   :     0.0003039462
    D(  152) --> S(    3) amplitude = -0.1636 beta
    D(  153) --> S(    3) amplitude =  0.9494 beta

 Excited state  34: excitation energy (eV) =    3.5184
 Total energy for state 34:                 -3317.93519903 au
    <S**2>     :  8.7766
    Trans. Mom.: -0.0103 X   0.0043 Y   0.0178 Z
    Strength   :     0.0000381537
    D(  148) --> S(    2) amplitude =  0.1542 beta
    D(  149) --> S(    2) amplitude =  0.9351 beta
    D(  151) --> S(    2) amplitude = -0.2088 beta

 Excited state  35: excitation energy (eV) =    3.5309
 Total energy for state 35:                 -3317.93473998 au
    <S**2>     :  8.7816
    Trans. Mom.: -0.0101 X   0.0006 Y  -0.0155 Z
    Strength   :     0.0000297196
    D(  148) --> S(    1) amplitude =  0.7796 beta
    D(  149) --> S(    1) amplitude = -0.3973 beta
    D(  150) --> S(    1) amplitude = -0.2962 beta
    D(  152) --> S(    1) amplitude = -0.3089 beta

 Excited state  36: excitation energy (eV) =    3.5525
 Total energy for state 36:                 -3317.93394818 au
    <S**2>     :  8.7772
    Trans. Mom.:  0.0184 X   0.0544 Y  -0.0071 Z
    Strength   :     0.0002915880
    D(  148) --> S(    2) amplitude =  0.8434 beta
    D(  149) --> S(    2) amplitude = -0.2034 beta
    D(  150) --> S(    2) amplitude = -0.3216 beta
    D(  152) --> S(    2) amplitude = -0.3108 beta

 Excited state  37: excitation energy (eV) =    3.6704
 Total energy for state 37:                 -3317.92961477 au
    <S**2>     :  8.7729
    Trans. Mom.:  0.0407 X  -0.0528 Y  -0.0376 Z
    Strength   :     0.0005263494
    D(  149) --> S(    3) amplitude =  0.2312 beta
    D(  150) --> S(    3) amplitude =  0.1737 beta
    D(  151) --> S(    3) amplitude =  0.9016 beta
    D(  154) --> S(    3) amplitude =  0.1643 beta

 Excited state  38: excitation energy (eV) =    3.7380
 Total energy for state 38:                 -3317.92713028 au
    <S**2>     :  8.7762
    Trans. Mom.:  0.0751 X   0.1478 Y  -0.0676 Z

 Excited state 100: excitation energy (eV) =    4.8630

                    Orbital Energies (a.u.)
 --------------------------------------------------------------

 Alpha MOs
 -- Occupied --
******** -29.9660 -25.7967 -25.7938 -25.7934 -19.0658 -19.0572 -19.0571
-19.0506 -19.0482 -19.0320 -19.0278 -19.0256 -19.0211 -19.0130 -19.0095
-19.0066 -19.0055 -14.3394 -14.3368 -14.2635 -14.2554 -10.2159 -10.2137
-10.2129 -10.2048 -10.2023 -10.1977 -10.1923 -10.1714 -10.1561 -10.1506
-10.1440 -10.1398 -10.1266 -10.1263 -10.1149 -10.1148 -10.1140 -10.1114
-10.1077 -10.1073 -10.1038 -10.1038  -3.5512  -2.3277  -2.3220  -2.3207
 -1.0581  -1.0547  -1.0253  -1.0010  -0.9960  -0.9940  -0.9899  -0.9863
 -0.9825  -0.9475  -0.9302  -0.9138  -0.9069  -0.8829  -0.8817  -0.8309
 -0.8282  -0.7715  -0.7659  -0.7492  -0.7346  -0.7255  -0.7073  -0.7020
 -0.6892  -0.6681  -0.6574  -0.6181  -0.6086  -0.5921  -0.5688  -0.5581
 -0.5452  -0.5337  -0.5271  -0.5117  -0.5098  -0.5002  -0.4950  -0.4895
 -0.4803  -0.4777  -0.4731  -0.4673  -0.4585  -0.4536  -0.4502  -0.4455
 -0.4413  -0.4334  -0.4297  -0.4278  -0.4257  -0.4235  -0.4166  -0.4128
 -0.4078  -0.4038  -0.4024  -0.3984  -0.3920  -0.3897  -0.3888  -0.3874
 -0.3837  -0.3830  -0.3810  -0.3786  -0.3774  -0.3720  -0.3702  -0.3687
 -0.3637  -0.3606  -0.3585  -0.3578  -0.3561  -0.3535  -0.3519  -0.3500
 -0.3455  -0.3414  -0.3401  -0.3350  -0.3290  -0.3249  -0.3211  -0.3104
 -0.3083  -0.3067  -0.3014  -0.2994  -0.2979  -0.2943  -0.2924  -0.2841
 -0.2727  -0.2680  -0.2658  -0.2528  -0.2423  -0.2404  -0.2388  -0.2312
 -0.2288  -0.2273  -0.2245  -0.2176  -0.2150  -0.2111  -0.2093  -0.2045
 -0.1998  -0.1965  -0.1914  -0.1855

 Beta MOs
 -- Occupied --
******** -29.8847 -25.7276 -25.7259 -25.7258 -19.0610 -19.0539 -19.0525
-19.0483 -19.0446 -19.0314 -19.0277 -19.0256 -19.0142 -19.0130 -19.0095
-19.0066 -19.0055 -14.3390 -14.3366 -14.2635 -14.2554 -10.2160 -10.2137
-10.2128 -10.2048 -10.2023 -10.1977 -10.1923 -10.1714 -10.1560 -10.1505
-10.1440 -10.1398 -10.1265 -10.1262 -10.1148 -10.1148 -10.1140 -10.1113
-10.1077 -10.1073 -10.1038 -10.1038  -3.3483  -2.1160  -2.1132  -2.1125
 -1.0537  -1.0503  -1.0220  -1.0010  -0.9959  -0.9939  -0.9898  -0.9804
 -0.9778  -0.9407  -0.9209  -0.9137  -0.9069  -0.8828  -0.8815  -0.8266
 -0.8241  -0.7710  -0.7655  -0.7473  -0.7342  -0.7247  -0.7065  -0.7009
 -0.6887  -0.6677  -0.6570  -0.6174  -0.6083  -0.5906  -0.5684  -0.5572
 -0.5440  -0.5333  -0.5228  -0.5098  -0.5063  -0.4989  -0.4896  -0.4828
 -0.4765  -0.4754  -0.4678  -0.4633  -0.4562  -0.4520  -0.4480  -0.4440
 -0.4377  -0.4320  -0.4283  -0.4272  -0.4230  -0.4212  -0.4143  -0.4105
 -0.4060  -0.4000  -0.3966  -0.3937  -0.3884  -0.3879  -0.3865  -0.3828
 -0.3822  -0.3804  -0.3788  -0.3741  -0.3737  -0.3701  -0.3653  -0.3618
 -0.3599  -0.3575  -0.3559  -0.3526  -0.3466  -0.3455  -0.3356  -0.3305
 -0.3303  -0.3260  -0.3111  -0.3094  -0.3070  -0.3049  -0.2999  -0.2981
 -0.2941  -0.2926  -0.2826  -0.2812  -0.2746  -0.2692  -0.2625  -0.2591
 -0.2576  -0.2417  -0.2395  -0.2335  -0.2290  -0.2281  -0.2272  -0.2242
 -0.2175  -0.2114  -0.2092  -0.2056  -0.1985  -0.1925  -0.1889

          Ground-State Mulliken Net Atomic Charges

     Atom                 Charge (a.u.)    Spin (a.u.)
  --------------------------------------------------------
      1 C                    -1.154572      -0.025971
      2 C                     0.443257      -0.001578
      3 H                    -0.532437       0.000083
      4 N                     0.288017      -0.005554
      5 H                    -0.014681       0.000433
      6 C                     1.038699       0.000216
      7 O                    -0.917195      -0.000013
      8 C                     0.648422      -0.001282
      9 O                    -0.906128       0.001147
     10 N                     0.678538       0.013391
     11 C                     1.491705       0.011133
     12 H                    -0.277679       0.000222
     13 H                    -0.379271       0.002481
     14 C                    -0.227374       0.038342
     15 C                     0.791268      -0.008079
     16 C                     0.907070      -0.001235
     17 H                    -0.379603      -0.000782
     18 H                    -0.556710      -0.000873
     19 C                     0.880695       0.002015
     20 O                    -0.869189       0.000960
     21 N                     0.622890      -0.002507
     22 H                    -0.275098      -0.001030
     23 C                     1.100164       0.000292
     24 O                    -0.975183       0.000023
     25 C                    -0.869464      -0.016486
     26 N                     1.266403       0.015867
     27 C                     1.264935       0.001341
     28 H                    -0.549312       0.000968
     29 H                    -0.507533       0.001517
     30 C                     1.024723       0.004892
     31 H                    -0.249093       0.000458
     32 H                    -0.072096      -0.000413
     33 C                     0.796701       0.000707
     34 H                    -0.397903       0.000017
     35 H                    -0.316583       0.000233
     36 C                     0.989718      -0.001873
     37 H                    -0.695898       0.005439
     38 H                    -0.422890       0.000225
     39 C                     0.648867       0.000144
     40 H                    -0.266615      -0.000562
     41 H                    -0.395714       0.000245
     42 C                     0.407745      -0.000496
     43 H                    -0.431387       0.000145
     44 C                     0.855907       0.001119
     45 H                    -0.203127       0.000762
     46 H                    -0.369766      -0.000370
     47 C                     1.412517       0.006462
     48 H                    -0.207179       0.000655
     49 H                    -0.296095       0.001132
     50 C                     0.843055      -0.000216
     51 H                    -0.974778       0.002603
     52 H                    -0.413810      -0.000048
     53 C                     0.803426       0.001149
     54 H                    -0.279082      -0.000324
     55 H                    -0.385008       0.000134
     56 O                    -0.867222       0.000274
     57 O                    -0.935055       0.000205
     58 O                    -1.043829       0.244416
     59 Fe                    1.584917       4.138782
     60 O                    -0.934079       0.100801
     61 O                    -0.413550       0.098587
     62 O                    -1.099906       0.133007
     63 O                    -0.803158       0.071268
     64 O                    -0.864486       0.016336
     65 O                    -1.208718       0.148490
     66 H                     0.011769       0.000046
     67 H                     0.016043       0.001498
     68 C                     0.895699      -0.002971
     69 H                    -0.383315       0.000282
     70 H                    -0.391378       0.001720
  --------------------------------------------------------
  Sum of atomic charges =    -3.000000

                    Cartesian Multipole Moments
 -----------------------------------------------------------------
    Charge (ESU x 10^10)
               -14.4096
    Dipole Moment (Debye)
         X      -3.2941      Y      25.3061      Z     -11.6615
       Tot      28.0578
    Quadrupole Moments (Debye-Ang)
        XX    -464.1090     XY      11.9446     YY    -326.7024
        XZ      -3.4889     YZ     -36.4499     ZZ    -337.4539

 Total job time:  385016.02s(wall), 6232382.11s(cpu)
        *  Thank you very much for using Q-Chem.  Have a nice day.  *
