 Q-Chem 6.0, Q-Chem, Inc., Pleasanton, CA (2022)
 Q-Chem 6.0.2 for Intel X86 EM64T Linux

User input:
--------------------------------------------------------------
$molecule
-3 6
C   -2.7882818    1.9175589    1.5547403
C   -2.8343179   -1.4324084   -1.3806776
H   -3.4393038   -2.3544092   -1.3031691
N   -1.9326077   -1.3753158   -0.2433372
H   -0.9483991   -1.1983984   -0.4441571
C   -2.0050620   -1.5355220   -2.6949605
O   -2.6745178   -1.6039800   -3.7552653
C   -2.2724697   -1.5914051    1.0395353
O   -3.4521867   -1.7384156    1.4137300
N   -2.4951436    2.9000891    0.6849483
C   -3.4225843    3.4040185   -0.3431838
H   -2.7998431    4.0488650   -0.9750652
H   -4.1867995    4.0397158    0.1295453
C   -1.1209886   -1.8402710    2.0136167
H   -0.8619145   -2.8960851    1.8367795
H   -1.5255504   -1.7661383    3.0307023
C    0.2042206   -1.0137081    1.9314112
C    0.3079662    0.0025873    3.1109460
C    1.4240518   -1.9647445    2.1383291
H    1.2048368   -2.6665288    2.9574186
H    2.2962814   -1.3628947    2.4325127
C    1.7522120   -2.7360658    0.8700333
O    0.9435864   -3.5042217    0.3205785
N    2.9874158   -2.5062038    0.3882090
H    3.6466327   -1.9024448    0.8780885
C    5.0651689   -2.7385355   -0.8618783
O    5.7145377   -3.2867185   -1.7859994
C    2.5708821    2.3209753   -0.4140392
N    1.8587706    1.8735067   -1.4386796
C    2.3310136    1.5252730   -2.7770685
H    3.3613362    1.8878776   -2.8777277
H    1.7003577    2.0744205   -3.4940210
C    4.0462165    2.5862735   -0.5277668
H    4.3500972    3.2015214    0.3286105
H    4.3136715    3.1051844   -1.4579861
C    2.2575881    0.0163107   -3.0318798
H    1.2074827   -0.3113600   -2.9956960
H    2.6201475   -0.1650624   -4.0589814
C    3.0838462   -0.7707325   -2.0168159
H    4.1537590   -0.5245730   -2.1382547
H    2.8015519   -0.4336462   -1.0069965
C    2.8857679   -2.2857954   -2.0756258
H    1.8089092   -2.5171311   -2.0908372
H    3.3319491   -2.7055053   -2.9922495
C    3.5300246   -2.9969122   -0.8664060
H    3.3488283   -4.0803902   -0.9532256
C   -4.0857045    2.2769942   -1.1554017
H   -4.5514195    2.7301559   -2.0468571
H   -4.9191006    1.8708063   -0.5597167
C   -4.1929849    1.7254104    2.0505830
H   -4.1722892    1.7656233    3.1508159
H   -4.8998471    2.4750742    1.6773991
C   -3.1452023    1.1166036   -1.5399314
H   -2.2757497    1.1037005   -0.8687646
H   -2.7381762    1.2675563   -2.5539072
C   -3.8232198   -0.2535005   -1.4398101
H   -4.4338072   -0.2891814   -0.5244935
H   -4.4933011   -0.4238380   -2.2971314
O   -0.7445189   -1.5324698   -2.5852629
O    5.5068617   -1.9716408    0.0419151
O    0.3620864   -0.3401112    0.7155127
Fe    0.1147535    1.5587985    0.8008820
O    0.6611197    1.2015178    2.7645425
O   -1.8560562    1.1873077    1.9716576
O   -1.1737404    2.9903432    0.3292074
O    1.9729365    2.4894485    0.7085375
O    0.1284832   -0.3743970    4.2765696
O    0.5443078    1.6295404   -1.2115159
H   -4.5261182    0.7158153    1.7652217
H    4.6038943    1.6356091   -0.4907083
$end

$rem
BASIS  =  gen
CORRELATION  =  TPSS
DFT_D  =  D3_BJ
EXCHANGE  =  TPSSH
GUI  =  2
JOB_TYPE  =  Optimization
SCF_CONVERGENCE  =  8
SOLVENT_METHOD  =  PCM
$end

$pcm
THEORY  CPCM
$end

$solvent
DIELECTRIC  78.39
$end

$van_der_waals
26   2.44
$end

!----------------------------------------------------------------------
! Basis Set Exchange
! Basis set: cc-pVDZ
!----------------------------------------------------------------------

$rem
BASIS GEN
PURECART 11
$end

$basis
H     0
S   4   1.00
1.301000D+01           1.968500D-02
1.962000D+00           1.379770D-01
4.446000D-01           4.781480D-01
1.220000D-01           5.012400D-01
S   1   1.00
1.220000D-01           1.000000D+00
P   1   1.00
7.270000D-01           1.0000000
****
C     0
S   9   1.00
6.665000D+03           6.920000D-04
1.000000D+03           5.329000D-03
2.280000D+02           2.707700D-02
6.471000D+01           1.017180D-01
2.106000D+01           2.747400D-01
7.495000D+00           4.485640D-01
2.797000D+00           2.850740D-01
5.215000D-01           1.520400D-02
1.596000D-01          -3.191000D-03
S   9   1.00
6.665000D+03          -1.460000D-04
1.000000D+03          -1.154000D-03
2.280000D+02          -5.725000D-03
6.471000D+01          -2.331200D-02
2.106000D+01          -6.395500D-02
7.495000D+00          -1.499810D-01
2.797000D+00          -1.272620D-01
5.215000D-01           5.445290D-01
1.596000D-01           5.804960D-01
S   1   1.00
1.596000D-01           1.000000D+00
P   4   1.00
9.439000D+00           3.810900D-02
2.002000D+00           2.094800D-01
5.456000D-01           5.085570D-01
1.517000D-01           4.688420D-01
P   1   1.00
1.517000D-01           1.000000D+00
D   1   1.00
5.500000D-01           1.0000000
****
N     0
S   9   1.00
9.046000D+03           7.000000D-04
1.357000D+03           5.389000D-03
3.093000D+02           2.740600D-02
8.773000D+01           1.032070D-01
2.856000D+01           2.787230D-01
1.021000D+01           4.485400D-01
3.838000D+00           2.782380D-01
7.466000D-01           1.544000D-02
2.248000D-01          -2.864000D-03
S   9   1.00
9.046000D+03          -1.530000D-04
1.357000D+03          -1.208000D-03
3.093000D+02          -5.992000D-03
8.773000D+01          -2.454400D-02
2.856000D+01          -6.745900D-02
1.021000D+01          -1.580780D-01
3.838000D+00          -1.218310D-01
7.466000D-01           5.490030D-01
2.248000D-01           5.788150D-01
S   1   1.00
2.248000D-01           1.000000D+00
P   4   1.00
1.355000D+01           3.991900D-02
2.917000D+00           2.171690D-01
7.973000D-01           5.103190D-01
2.185000D-01           4.622140D-01
P   1   1.00
2.185000D-01           1.000000D+00
D   1   1.00
8.170000D-01           1.0000000
****
O     0
S   9   1.00
1.172000D+04           7.100000D-04
1.759000D+03           5.470000D-03
4.008000D+02           2.783700D-02
1.137000D+02           1.048000D-01
3.703000D+01           2.830620D-01
1.327000D+01           4.487190D-01
5.025000D+00           2.709520D-01
1.013000D+00           1.545800D-02
3.023000D-01          -2.585000D-03
S   9   1.00
1.172000D+04          -1.600000D-04
1.759000D+03          -1.263000D-03
4.008000D+02          -6.267000D-03
1.137000D+02          -2.571600D-02
3.703000D+01          -7.092400D-02
1.327000D+01          -1.654110D-01
5.025000D+00          -1.169550D-01
1.013000D+00           5.573680D-01
3.023000D-01           5.727590D-01
S   1   1.00
3.023000D-01           1.000000D+00
P   4   1.00
1.770000D+01           4.301800D-02
3.854000D+00           2.289130D-01
1.046000D+00           5.087280D-01
2.753000D-01           4.605310D-01
P   1   1.00
2.753000D-01           1.000000D+00
D   1   1.00
1.185000D+00           1.0000000
****
Fe     0
S   20   1.00
4.316265D+06           8.048803D-06
6.463424D+05           6.258306D-05
1.470897D+05           3.290239D-04
4.166152D+04           1.387355D-03
1.359077D+04           5.023256D-03
4.905750D+03           1.610140D-02
1.912746D+03           4.590034D-02
7.926043D+02           1.136154D-01
3.448065D+02           2.283869D-01
1.558999D+02           3.221159D-01
7.223091D+01           2.383661D-01
3.272506D+01           7.404667D-02
1.566762D+01           9.214197D-02
7.503483D+00           9.339790D-02
3.312223D+00           1.573965D-02
1.558471D+00          -4.186682D-04
6.839140D-01           5.376318D-05
1.467570D-01          -3.816654D-05
7.058300D-02           4.319603D-05
3.144900D-02          -3.401019D-06
S   20   1.00
4.316265D+06          -4.155954D-06
6.463424D+05          -3.231401D-05
1.470897D+05          -1.699525D-04
4.166152D+04          -7.171369D-04
1.359077D+04          -2.603625D-03
4.905750D+03          -8.399109D-03
1.912746D+03          -2.434109D-02
7.926043D+02          -6.251948D-02
3.448065D+02          -1.365929D-01
1.558999D+02          -2.312707D-01
7.223091D+01          -2.383734D-01
3.272506D+01           3.123837D-02
1.566762D+01           5.086818D-01
7.503483D+00           4.987695D-01
3.312223D+00           9.033552D-02
1.558471D+00          -6.005337D-03
6.839140D-01           2.312454D-04
1.467570D-01          -5.643680D-04
7.058300D-02           4.992260D-04
3.144900D-02          -1.015293D-04
S   20   1.00
4.316265D+06           9.532178D-07
6.463424D+05           7.414605D-06
1.470897D+05           3.898393D-05
4.166152D+04           1.647152D-04
1.359077D+04           5.985980D-04
4.905750D+03           1.942390D-03
1.912746D+03           5.687237D-03
7.926043D+02           1.501329D-02
3.448065D+02           3.452455D-02
1.558999D+02           6.495820D-02
7.223091D+01           7.716194D-02
3.272506D+01          -1.873411D-02
1.566762D+01          -3.009185D-01
7.503483D+00          -4.554661D-01
3.312223D+00           1.286463D-01
1.558471D+00           7.183316D-01
6.839140D-01           4.051743D-01
1.467570D-01           2.168227D-02
7.058300D-02          -8.343566D-03
3.144900D-02           3.658979D-03
S   20   1.00
4.316265D+06          -2.063008D-07
6.463424D+05          -1.604169D-06
1.470897D+05          -8.438437D-06
4.166152D+04          -3.563151D-05
1.359077D+04          -1.295998D-04
4.905750D+03          -4.201534D-04
1.912746D+03          -1.231954D-03
7.926043D+02          -3.248922D-03
3.448065D+02          -7.493717D-03
1.558999D+02          -1.410102D-02
7.223091D+01          -1.691600D-02
3.272506D+01           4.218996D-03
1.566762D+01           6.833810D-02
7.503483D+00           1.098201D-01
3.312223D+00          -4.009005D-02
1.558471D+00          -2.174739D-01

   21   -3318.0080980242      5.51e-09  Convergence criterion met
 Total energy in the final basis set =    -3318.0080980242
   17   -3318.0084748358      7.64e-09  Convergence criterion met
 Total energy in the final basis set =    -3318.0084748358
   17   -3318.0085905973      7.87e-09  Convergence criterion met
 Total energy in the final basis set =    -3318.0085905973
   17   -3318.0086524040      7.61e-09  Convergence criterion met
 Total energy in the final basis set =    -3318.0086524040
   17   -3318.0087276336      7.61e-09  Convergence criterion met
 Total energy in the final basis set =    -3318.0087276336
   17   -3318.0087765027      7.85e-09  Convergence criterion met
 Total energy in the final basis set =    -3318.0087765027
   17   -3318.0088263040      7.77e-09  Convergence criterion met
 Total energy in the final basis set =    -3318.0088263040
   17   -3318.0088738092      7.86e-09  Convergence criterion met
   18   -3318.0090124727      4.60e-09  Convergence criterion met
 Total energy in the final basis set =    -3318.0090124727
   18   -3318.0090148787      4.63e-09  Convergence criterion met
 Total energy in the final basis set =    -3318.0090148787
   17   -3318.0090171748      9.93e-09  Convergence criterion met
 Total energy in the final basis set =    -3318.0090171748
   17   -3318.0090192682      9.93e-09  Convergence criterion met
 Total energy in the final basis set =    -3318.0090192682
   18   -3318.0090209230      4.72e-09  Convergence criterion met
 Total energy in the final basis set =    -3318.0090209230
   18   -3318.0090220764      4.90e-09  Convergence criterion met
 Total energy in the final basis set =    -3318.0090220764
   18   -3318.0090229477      5.02e-09  Convergence criterion met
 Total energy in the final basis set =    -3318.0090229477

                    Orbital Energies (a.u.)
 --------------------------------------------------------------

 Alpha MOs
 -- Occupied --
******** -29.9584 -25.7892 -25.7882 -25.7843 -19.0504 -19.0490 -19.0443
-19.0437 -19.0211 -19.0120 -19.0109 -19.0035 -19.0024 -18.9844 -18.9821
-18.9770 -18.9757 -14.3334 -14.3251 -14.2554 -14.2406 -10.2107 -10.2103
-10.1988 -10.1948 -10.1905 -10.1784 -10.1765 -10.1579 -10.1561 -10.1551
-10.1326 -10.1301 -10.1281 -10.1265 -10.1165 -10.1123 -10.1080 -10.1045
-10.1042 -10.1027 -10.1019 -10.1018  -3.5392  -2.3150  -2.3132  -2.3062
 -1.0496  -1.0454  -1.0006  -0.9830  -0.9770  -0.9761  -0.9741  -0.9695
 -0.9662  -0.9326  -0.9103  -0.8880  -0.8832  -0.8698  -0.8597  -0.8244
 -0.8202  -0.7637  -0.7591  -0.7390  -0.7259  -0.7188  -0.7000  -0.6964
 -0.6807  -0.6599  -0.6483  -0.6071  -0.5979  -0.5786  -0.5606  -0.5595
 -0.5240  -0.5209  -0.5150  -0.5090  -0.4922  -0.4888  -0.4854  -0.4804
 -0.4744  -0.4689  -0.4637  -0.4527  -0.4494  -0.4439  -0.4378  -0.4368
 -0.4317  -0.4283  -0.4163  -0.4137  -0.4100  -0.4095  -0.4066  -0.4048
 -0.4024  -0.3926  -0.3916  -0.3870  -0.3845  -0.3828  -0.3801  -0.3785
 -0.3753  -0.3732  -0.3687  -0.3656  -0.3614  -0.3601  -0.3558  -0.3557
 -0.3482  -0.3460  -0.3438  -0.3417  -0.3396  -0.3389  -0.3345  -0.3318
 -0.3297  -0.3280  -0.3258  -0.3237  -0.3214  -0.3153  -0.3077  -0.3047
 -0.3007  -0.2991  -0.2964  -0.2936  -0.2927  -0.2854  -0.2842  -0.2734
 -0.2665  -0.2511  -0.2477  -0.2311  -0.2211  -0.2186  -0.2175  -0.2128
 -0.2097  -0.2049  -0.2047  -0.2033  -0.1989  -0.1944  -0.1917  -0.1846
 -0.1834  -0.1830  -0.1814  -0.1729

 Beta MOs
 -- Occupied --
******** -29.8782 -25.7214 -25.7201 -25.7181 -19.0455 -19.0453 -19.0416
-19.0385 -19.0178 -19.0109 -19.0051 -19.0030 -19.0024 -18.9844 -18.9821
-18.9770 -18.9757 -14.3329 -14.3247 -14.2554 -14.2406 -10.2108 -10.2104
-10.1988 -10.1947 -10.1905 -10.1784 -10.1765 -10.1579 -10.1560 -10.1550
-10.1326 -10.1301 -10.1280 -10.1264 -10.1165 -10.1121 -10.1080 -10.1045
-10.1042 -10.1025 -10.1019 -10.1018  -3.3386  -2.1074  -2.1041  -2.1015
 -1.0448  -1.0409  -0.9971  -0.9829  -0.9744  -0.9711  -0.9698  -0.9694
 -0.9661  -0.9229  -0.9044  -0.8880  -0.8831  -0.8697  -0.8594  -0.8199
 -0.8157  -0.7632  -0.7586  -0.7372  -0.7253  -0.7179  -0.6990  -0.6953
 -0.6801  -0.6594  -0.6480  -0.6064  -0.5975  -0.5772  -0.5602  -0.5590
 -0.5231  -0.5176  -0.5145  -0.5045  -0.4897  -0.4853  -0.4824  -0.4760
 -0.4702  -0.4660  -0.4593  -0.4492  -0.4461  -0.4405  -0.4369  -0.4341
 -0.4302  -0.4254  -0.4147  -0.4124  -0.4083  -0.4065  -0.4058  -0.4028
 -0.3990  -0.3882  -0.3862  -0.3829  -0.3819  -0.3797  -0.3772  -0.3760
 -0.3693  -0.3679  -0.3668  -0.3632  -0.3584  -0.3539  -0.3515  -0.3493
 -0.3453  -0.3396  -0.3351  -0.3332  -0.3293  -0.3275  -0.3252  -0.3242
 -0.3173  -0.3154  -0.3049  -0.3011  -0.2989  -0.2976  -0.2934  -0.2922
 -0.2860  -0.2845  -0.2764  -0.2699  -0.2611  -0.2560  -0.2538  -0.2384
 -0.2313  -0.2211  -0.2193  -0.2147  -0.2098  -0.2049  -0.2042  -0.1994
 -0.1957  -0.1937  -0.1910  -0.1860  -0.1835  -0.1818  -0.1767

          Ground-State Mulliken Net Atomic Charges

     Atom                 Charge (a.u.)    Spin (a.u.)
  --------------------------------------------------------
      1 C                     0.133383       0.000361
      2 C                    -0.039468       0.000049
      3 H                     0.006506      -0.000011
      4 N                    -0.130582       0.001460
      5 H                     0.124337       0.001153
      6 C                     0.140444       0.000066
      7 O                    -0.465828       0.000055
      8 C                     0.140985      -0.000286
      9 O                    -0.418405       0.000483
     10 N                    -0.078873       0.015679
     11 C                     0.109393       0.001332
     12 H                     0.057678       0.000216
     13 H                     0.059131       0.000677
     14 C                     0.108041       0.007746
     15 H                     0.033403      -0.000150
     16 H                    -0.002702       0.000510
     17 C                    -0.072298       0.004686
     18 C                     0.261107       0.006110
     19 C                     0.058381       0.007227
     20 H                     0.036629       0.002152
     21 H                     0.027070      -0.000487
     22 C                     0.182741       0.000602
     23 O                    -0.397105       0.000250
     24 N                    -0.128102      -0.000165
     25 H                     0.098439      -0.000058
     26 C                     0.141531      -0.000004
     27 O                    -0.466862       0.000005
     28 C                     0.156166      -0.000169
     29 N                    -0.047844       0.016643
     30 C                     0.105029       0.001767
     31 H                     0.054928       0.001959
     32 H                     0.047119       0.000998
     33 C                    -0.016217       0.004125
     34 H                     0.064091       0.000281
     35 H                     0.075004       0.000465
     36 C                    -0.047775       0.001132
     37 H                     0.033953       0.000331
     38 H                     0.025839      -0.000152
     39 C                    -0.111329       0.000020
     40 H                     0.024667      -0.000001
     41 H                     0.045560      -0.000137
     42 C                     0.023944       0.000001
     43 H                     0.007316      -0.000032
     44 H                     0.009221       0.000021
     45 C                    -0.039132      -0.000007
     46 H                     0.001963      -0.000002
     47 C                    -0.060525       0.000999
     48 H                     0.033247       0.000251
     49 H                     0.028202       0.000024
     50 C                    -0.007704       0.004428
     51 H                     0.072582       0.000081
     52 H                     0.063574       0.001146
     53 C                    -0.101385       0.000121
     54 H                     0.117622       0.001412
     55 H                     0.021322       0.000047
     56 C                     0.013581       0.000074
     57 H                     0.010855       0.000003
     58 H                     0.005172       0.000132
     59 O                    -0.428965       0.000110
     60 O                    -0.464585       0.000004
     61 O                    -0.511760       0.215824
     62 Fe                    0.515648       4.114731
     63 O                    -0.398970       0.092103
     64 O                    -0.332079       0.075213
     65 O                    -0.438247       0.151266
     66 O                    -0.392081       0.092056
     67 O                    -0.406508       0.019873
     68 O                    -0.423290       0.153499
     69 H                     0.076753      -0.000285
     70 H                     0.076065      -0.000012
  --------------------------------------------------------
  Sum of atomic charges =    -3.000000

                    Cartesian Multipole Moments
 -----------------------------------------------------------------
    Charge (ESU x 10^10)
               -14.4096
    Dipole Moment (Debye)
         X     -12.1664      Y      20.8313      Z       1.8077
       Tot      24.1915
    Quadrupole Moments (Debye-Ang)
        XX    -384.1665     XY      32.4303     YY    -315.3642
        XZ      -5.9057     YZ     -39.9083     ZZ    -347.4669

 Final energy is -3318.009022947695
	**  OPTIMIZATION CONVERGED  **

             Standard Nuclear Orientation (Angstroms)
    I     Atom           X                Y                Z
 ----------------------------------------------------------------
    1      C      -2.7934634565     1.9523641054     1.5277049328
    2      C      -2.8501445433    -1.4292249168    -1.3823261010
    3      H      -3.4434500796    -2.3579182703    -1.2930713450
    4      N      -1.9376580694    -1.3595993552    -0.2525712829
    5      H      -0.9541864538    -1.1642156354    -0.4625977565
    6      C      -2.0265999334    -1.5270454140    -2.7005471053
    7      O      -2.7026770310    -1.5838346979    -3.7620463947
    8      C      -2.2584209351    -1.6285754029     1.0265399015
    9      O      -3.4330083063    -1.8292631870     1.4046192752
   10      N      -2.5150172433     2.9258627350     0.6401837456
   11      C      -3.4700249232     3.4169900985    -0.3737466692
   12      H      -2.8602826215     4.0482254147    -1.0314093440
   13      H      -4.2232562294     4.0563547508     0.1112049423
   14      C      -1.0925565334    -1.8694869284     1.9828439029
   15      H      -0.8000863194    -2.9125513803     1.7766567027
   16      H      -1.4868255549    -1.8267465241     3.0070298928
   17      C       0.2073546453    -1.0060778934     1.9085592577
   18      C       0.2773167499     0.0105167752     3.0861037782
   19      C       1.4450406818    -1.9312468347     2.1292356930
   20      H       1.2351638729    -2.6229071115     2.9599847327
   21      H       2.3082315361    -1.3091132495     2.4103821322
   22      C       1.7779291533    -2.7137066416     0.8692634750
   23      O       0.9824611850    -3.5124889719     0.3345804902
   24      N       3.0030189209    -2.4581350612     0.3697288977
   25      H       3.6715194080    -1.8536052895     0.8549799973
   26      C       5.0896427200    -2.6896598354    -0.8497237630
   27      O       5.7592844707    -3.2209927121    -1.7735728613
   28      C       2.5804468693     2.2607143106    -0.3755606988
   29      N       1.8713980905     1.8450223697    -1.4208900507
   30      C       2.3393782261     1.5203702132    -2.7695990277
   31      H       3.3707840395     1.8841817308    -2.8656394585
   32      H       1.7037566305     2.0867857950    -3.4677964472
   33      C       4.0681931684     2.4611203899    -0.4474288917
   34      H       4.3591262105     3.1376702316     0.3666123257
   35      H       4.3963411553     2.8841378186    -1.4060034833
   36      C       2.2610138665     0.0149037756    -3.0485587260
   37      H       1.2101378588    -0.3125996111    -2.9972565274
   38      H       2.6066528395    -0.1512678745    -4.0839054492
   39      C       3.1071155125    -0.7768080327    -2.0525169373
   40      H       4.1742814607    -0.5274662694    -2.1918193555
   41      H       2.8359696691    -0.4411707858    -1.0382788058
   42      C       2.9161342647    -2.2940105487    -2.0985760412
   43      H       1.8404980471    -2.5341075711    -2.1136605462
   44      H       3.3738111414    -2.7263543364    -3.0039105022
   45      C       3.5590499759    -2.9745645732    -0.8698950215
   46      H       3.3894681483    -4.0619176195    -0.9312385570
   47      C      -4.1424284523     2.2615754390    -1.1370323906
   48      H      -4.6559106999     2.6825375165    -2.0180441030
   49      H      -4.9364881563     1.8464951124    -0.4939102765
   50      C      -4.1766236821     1.8064478477     2.0960785639
   51      H      -4.0938342698     1.8229556951     3.1938478825
   52      H      -4.8621396496     2.6000513668     1.7748549123
   53      C      -3.1884446361     1.1165276346    -1.5310199694
   54      H      -2.3193061484     1.1105121764    -0.8531658250
   55      H      -2.7818664783     1.2799830424    -2.5435806514
   56      C      -3.8533535270    -0.2609273220    -1.4374689557
   57      H      -4.4675297914    -0.3019905009    -0.5225115305
   58      H      -4.5200309461    -0.4381616031    -2.2970248557
   59      O      -0.7624899510    -1.5362883026    -2.5938848532
   60      O       5.5102326099    -1.9192627359     0.0678365391
   61      O       0.3635313968    -0.3333483738     0.6891841488
   62      Fe      0.0739196231     1.5614721365     0.7772511632
   63      O       0.6160166474     1.2172458018     2.7444798569
   64      O      -1.8522597453     1.2050528604     1.9115800084
   65      O      -1.2076419292     2.9808099134     0.2280451148
   66      O       1.9602005390     2.4486943603     0.7337345723
   67      O       0.0934334411    -0.3719258609     4.2543330696
   68      O       0.5431073275     1.6558387963    -1.2172539690
   69      H      -4.5819698471     0.8249390635     1.8079762949
   70      H       4.5813610402     1.4960287570    -0.2992440724
 ----------------------------------------------------------------

 Total job time:  823527.86s(wall), 1628212.16s(cpu)
        *  Thank you very much for using Q-Chem.  Have a nice day.  *
