 Q-Chem 6.0, Q-Chem, Inc., Pleasanton, CA (2022)
 Q-Chem 6.0.2 for Intel X86 EM64T Linux

User input:
--------------------------------------------------------------
$molecule
-3 6
C    3.0219903   -1.7974248   -0.4458775
C    4.2980315   -2.3301432   -0.2521760
C    5.3028285   -2.2007572   -1.2441337
C    4.9839116   -1.5997763   -2.4693230
C    3.7187674   -1.0364303   -2.6771605
C    2.7504763   -1.0613702   -1.6585773
H    4.5014027   -2.8365989    0.6955955
O    1.5924378   -0.4366545   -1.7178932
C    6.7444064   -2.4178218   -0.9640780
O    7.6004310   -2.5276999   -1.8578136
N    7.0949662   -2.3880255    0.3652390
H    6.3534420   -2.1093080    0.9995280
C    8.4294550   -1.9829210    0.7905471
H    8.7529399   -2.6099362    1.6377759
H    9.1087978   -2.1789332   -0.0507094
C    8.4591842   -0.5010757    1.1956638
H    9.4567878   -0.2756240    1.6094879
H    7.7452866   -0.3507990    2.0252747
C    8.1207857    0.4927064    0.0479992
H    7.8552582   -0.0683231   -0.8617049
H    9.0289476    1.0660757   -0.2019434
N    7.0461822    1.4589696    0.2941665
H    7.2380445    1.9493035    1.1719060
C    4.6424430    1.9586078    0.6099770
H    3.6682265    1.4724693    0.7803204
H    4.8901682    2.4815927    1.5524769
C    5.7021099    0.8805665    0.3672853
H    5.6070496    0.1065743    1.1586475
H    5.5053650    0.3582147   -0.5834235
C    4.5156619    2.9846271   -0.5258957
H    4.1686359    3.9514564   -0.1328739
H    5.5134542    3.1565576   -0.9633326
C    3.5530656    2.5726793   -1.6498913
H    3.8094424    1.5739621   -2.0281140
H    3.6513416    3.2859312   -2.4858647
N    2.1538924    2.5207436   -1.2314333
H    1.6779830    1.6159659   -1.2202850
C    1.4720429    3.6359306   -0.8888426
O    1.9698202    4.7710340   -0.9707942
C    0.0401574    3.4582005   -0.4015287
H   -0.6265191    3.4639762   -1.2800016
H   -0.1864460    4.3536550    0.1921447
C   -1.5826569    2.3372399    1.2015734
H   -1.7644495    1.3842628    1.7224748
H   -1.4773233    3.1376089    1.9445396
C   -2.7697229    2.6591120    0.3066512
O   -3.4215064    3.7071822    0.4130759
N   -3.0301809    1.6973462   -0.6185093
C   -3.8536750    1.9603173   -1.7956137
H   -2.2313276    1.0594321   -0.7357174
C   -5.2694509    1.3774752   -1.7426288
H   -3.3219934    1.5362092   -2.6624248
H   -3.9138419    3.0521820   -1.9373203
C   -6.1780551    2.0107732   -0.6856479
H   -5.7230899    1.5402855   -2.7388547
H   -5.2170597    0.2854662   -1.6014447
C   -7.6612661    1.6510288   -0.8774618
H   -6.0824795    3.1095859   -0.7406227
H   -5.8387340    1.7266440    0.3261380
H   -8.2759970    2.2627461   -0.1939183
H   -7.9532153    1.9432022   -1.9037065
C   -5.7820164   -2.3614973   -0.4193223
C   -4.4359874   -2.1728709    0.1716570
O   -6.0410074   -2.0352875   -1.5961629
C   -4.2569380   -1.9693704    1.5496219
C   -3.3185103   -2.0695860   -0.6945310
C   -2.9907194   -1.6616108    2.0649607
C   -2.0448705   -1.7786908   -0.2026689
C   -1.8769235   -1.5466663    1.2154206
H   -2.8581047   -1.4699795    3.1336998
O   -0.9537007   -1.6590290   -0.9473361
C   -0.2588559    2.1649046    0.3940854
O   -0.3678033    1.0820949   -0.4793537
C    0.8743728    1.9159567    1.4284359
O    1.3930033    0.7377641    1.3954519
O    1.2096600    2.8273786    2.2043336
H    3.4883119   -0.5101611   -3.6079133
O    2.0333509   -1.8704635    0.4342009
H   -3.4640848   -2.2025751   -1.7688346
O   -0.6706692   -1.2059223    1.6180039
Fe    0.4960852   -0.6164848    0.0332847
N   -8.0520406    0.2529226   -0.6822567
H   -7.4510466   -0.3515974   -1.2489331
N   -6.7440593   -2.9024917    0.3880601
H   -6.4772897   -3.1163039    1.3426402
C   -8.1637622   -2.6963433    0.1399837
H   -8.2795908   -2.5339440   -0.9394393
H   -8.7145002   -3.6141822    0.3989140
C   -8.7278034   -1.5078430    0.9328982
H   -9.7868407   -1.3770073    0.6493376
H   -8.7048607   -1.7496119    2.0102018
C   -7.9792591   -0.1906930    0.7108654
H   -8.4534990    0.5866793    1.3340271
H   -6.9391906   -0.2944984    1.0845641
H    5.7653748   -1.5060082   -3.2248438
H   -5.1093293   -1.9921364    2.2317973
$end

$rem
BASIS  =  gen
DFT_D  =  D3_BJ
GUI  =  2
JOB_TYPE  =  Optimization
METHOD  =  B3LYP
SCF_CONVERGENCE  =  8
SOLVENT_METHOD  =  PCM
$end

$pcm
THEORY  CPCM
$end

$solvent
DIELECTRIC  78.39
$end

$van_der_waals
26   2.44
$end

!----------------------------------------------------------------------
! Basis Set Exchange
! Basis set: cc-pVDZ
!----------------------------------------------------------------------

$rem
BASIS GEN
PURECART 11
$end

$basis
H     0
S   4   1.00
1.301000D+01           1.968500D-02
1.962000D+00           1.379770D-01
4.446000D-01           4.781480D-01
1.220000D-01           5.012400D-01
S   1   1.00
1.220000D-01           1.000000D+00
P   1   1.00
7.270000D-01           1.0000000
****
C     0
S   9   1.00
6.665000D+03           6.920000D-04
1.000000D+03           5.329000D-03
2.280000D+02           2.707700D-02
6.471000D+01           1.017180D-01
2.106000D+01           2.747400D-01
7.495000D+00           4.485640D-01
2.797000D+00           2.850740D-01
5.215000D-01           1.520400D-02
1.596000D-01          -3.191000D-03
S   9   1.00
6.665000D+03          -1.460000D-04
1.000000D+03          -1.154000D-03
2.280000D+02          -5.725000D-03
6.471000D+01          -2.331200D-02
2.106000D+01          -6.395500D-02
7.495000D+00          -1.499810D-01
2.797000D+00          -1.272620D-01
5.215000D-01           5.445290D-01
1.596000D-01           5.804960D-01
S   1   1.00
1.596000D-01           1.000000D+00
P   4   1.00
9.439000D+00           3.810900D-02
2.002000D+00           2.094800D-01
5.456000D-01           5.085570D-01
1.517000D-01           4.688420D-01
P   1   1.00
1.517000D-01           1.000000D+00
D   1   1.00
5.500000D-01           1.0000000
****
N     0
S   9   1.00
9.046000D+03           7.000000D-04
1.357000D+03           5.389000D-03
3.093000D+02           2.740600D-02
8.773000D+01           1.032070D-01
2.856000D+01           2.787230D-01
1.021000D+01           4.485400D-01
3.838000D+00           2.782380D-01
7.466000D-01           1.544000D-02
2.248000D-01          -2.864000D-03
S   9   1.00
9.046000D+03          -1.530000D-04
1.357000D+03          -1.208000D-03
3.093000D+02          -5.992000D-03
8.773000D+01          -2.454400D-02
2.856000D+01          -6.745900D-02
1.021000D+01          -1.580780D-01
3.838000D+00          -1.218310D-01
7.466000D-01           5.490030D-01
2.248000D-01           5.788150D-01
S   1   1.00
2.248000D-01           1.000000D+00
P   4   1.00
1.355000D+01           3.991900D-02
2.917000D+00           2.171690D-01
7.973000D-01           5.103190D-01
2.185000D-01           4.622140D-01
P   1   1.00
2.185000D-01           1.000000D+00
D   1   1.00
8.170000D-01           1.0000000
****
O     0
S   9   1.00
1.172000D+04           7.100000D-04
1.759000D+03           5.470000D-03
4.008000D+02           2.783700D-02
1.137000D+02           1.048000D-01
3.703000D+01           2.830620D-01
1.327000D+01           4.487190D-01
5.025000D+00           2.709520D-01
1.013000D+00           1.545800D-02
3.023000D-01          -2.585000D-03
S   9   1.00
1.172000D+04          -1.600000D-04
1.759000D+03          -1.263000D-03
4.008000D+02          -6.267000D-03
1.137000D+02          -2.571600D-02
3.703000D+01          -7.092400D-02
1.327000D+01          -1.654110D-01
5.025000D+00          -1.169550D-01
1.013000D+00           5.573680D-01
3.023000D-01           5.727590D-01
S   1   1.00
3.023000D-01           1.000000D+00
P   4   1.00
1.770000D+01           4.301800D-02
3.854000D+00           2.289130D-01
1.046000D+00           5.087280D-01
2.753000D-01           4.605310D-01
P   1   1.00
2.753000D-01           1.000000D+00
D   1   1.00
1.185000D+00           1.0000000
****
Fe     0
S   20   1.00
4.316265D+06           8.048803D-06
6.463424D+05           6.258306D-05
1.470897D+05           3.290239D-04
4.166152D+04           1.387355D-03
1.359077D+04           5.023256D-03
4.905750D+03           1.610140D-02
1.912746D+03           4.590034D-02
7.926043D+02           1.136154D-01
3.448065D+02           2.283869D-01
1.558999D+02           3.221159D-01
7.223091D+01           2.383661D-01
3.272506D+01           7.404667D-02
1.566762D+01           9.214197D-02
7.503483D+00           9.339790D-02
3.312223D+00           1.573965D-02
1.558471D+00          -4.186682D-04
6.839140D-01           5.376318D-05
1.467570D-01          -3.816654D-05
7.058300D-02           4.319603D-05
3.144900D-02          -3.401019D-06
S   20   1.00
4.316265D+06          -4.155954D-06
6.463424D+05          -3.231401D-05
1.470897D+05          -1.699525D-04
4.166152D+04          -7.171369D-04
1.359077D+04          -2.603625D-03
4.905750D+03          -8.399109D-03
1.912746D+03          -2.434109D-02
7.926043D+02          -6.251948D-02
3.448065D+02          -1.365929D-01
1.558999D+02          -2.312707D-01
7.223091D+01          -2.383734D-01
3.272506D+01           3.123837D-02
1.566762D+01           5.086818D-01
7.503483D+00           4.987695D-01
3.312223D+00           9.033552D-02
1.558471D+00          -6.005337D-03
6.839140D-01           2.312454D-04
1.467570D-01          -5.643680D-04
7.058300D-02           4.992260D-04
3.144900D-02          -1.015293D-04
S   20   1.00
4.316265D+06           9.532178D-07
6.463424D+05           7.414605D-06
1.470897D+05           3.898393D-05
4.166152D+04           1.647152D-04
1.359077D+04           5.985980D-04
4.905750D+03           1.942390D-03
1.912746D+03           5.687237D-03
7.926043D+02           1.501329D-02
3.448065D+02           3.452455D-02
1.558999D+02           6.495820D-02
7.223091D+01           7.716194D-02
3.272506D+01          -1.873411D-02

   20   -3742.9409672740      9.73e-09  Convergence criterion met
 Total energy in the final basis set =    -3742.9409672740
   16   -3742.9409856597      9.75e-09  Convergence criterion met
 Total energy in the final basis set =    -3742.9409856597
   16   -3742.9410124745      7.63e-09  Convergence criterion met
 Total energy in the final basis set =    -3742.9410124745
   16   -3742.9410242621      8.62e-09  Convergence criterion met
 Total energy in the final basis set =    -3742.9410242621
   16   -3742.9410415778      7.48e-09  Convergence criterion met
 Total energy in the final basis set =    -3742.9410415778
   16   -3742.9410629119      6.41e-09  Convergence criterion met
 Total energy in the final basis set =    -3742.9410629119
   16   -3742.9410801062      6.62e-09  Convergence criterion met
 Total energy in the final basis set =    -3742.9410801062
   16   -3742.9410959624      6.81e-09  Convergence criterion met
   16   -3742.9411255066      7.56e-09  Convergence criterion met
 Total energy in the final basis set =    -3742.9411255066
   16   -3742.9411310184      7.90e-09  Convergence criterion met
 Total energy in the final basis set =    -3742.9411310184
   16   -3742.9411354903      8.06e-09  Convergence criterion met
 Total energy in the final basis set =    -3742.9411354903
   16   -3742.9411385271      8.71e-09  Convergence criterion met
 Total energy in the final basis set =    -3742.9411385271
   16   -3742.9411404051      9.54e-09  Convergence criterion met
 Total energy in the final basis set =    -3742.9411404051
   16   -3742.9411416282      6.24e-09  Convergence criterion met
 Total energy in the final basis set =    -3742.9411416282
   16   -3742.9411425998      9.42e-09  Convergence criterion met
 Total energy in the final basis set =    -3742.9411425998

                    Orbital Energies (a.u.)
 --------------------------------------------------------------

 Alpha MOs
 -- Occupied --
******** -30.1091 -25.9629 -25.9604 -25.9592 -19.0955 -19.0919 -19.0917
-19.0913 -19.0909 -19.0889 -19.0869 -19.0869 -19.0844 -19.0753 -19.0719
-14.3375 -14.3331 -14.3253 -14.3197 -14.2997 -14.2951 -10.2728 -10.2707
-10.2650 -10.2642 -10.2573 -10.2164 -10.2080 -10.2078 -10.2076 -10.2074
-10.2041 -10.2023 -10.2020 -10.2001 -10.1948 -10.1938 -10.1929 -10.1860
-10.1753 -10.1738 -10.1707 -10.1698 -10.1693 -10.1687 -10.1668 -10.1658
-10.1656 -10.1643 -10.1630 -10.1620 -10.1596 -10.1581 -10.1578 -10.1566
 -3.5911  -2.3687  -2.3639  -2.3612  -1.0248  -1.0175  -1.0155  -1.0122
 -1.0106  -0.9917  -0.9877  -0.9519  -0.9508  -0.9487  -0.9320  -0.9088
 -0.9067  -0.8968  -0.8940  -0.8865  -0.8864  -0.8164  -0.8159  -0.7778
 -0.7746  -0.7606  -0.7547  -0.7483  -0.7220  -0.7172  -0.7136  -0.7030
 -0.6970  -0.6926  -0.6826  -0.6607  -0.6527  -0.6261  -0.6195  -0.6002
 -0.5951  -0.5939  -0.5828  -0.5759  -0.5730  -0.5720  -0.5686  -0.5569
 -0.5549  -0.5480  -0.5424  -0.5377  -0.5131  -0.5039  -0.5020  -0.4863
 -0.4817  -0.4787  -0.4727  -0.4685  -0.4676  -0.4659  -0.4602  -0.4586
 -0.4575  -0.4543  -0.4505  -0.4474  -0.4460  -0.4437  -0.4407  -0.4377
 -0.4335  -0.4269  -0.4263  -0.4210  -0.4198  -0.4154  -0.4117  -0.4106
 -0.4088  -0.4063  -0.4047  -0.4034  -0.4022  -0.3981  -0.3963  -0.3929
 -0.3919  -0.3890  -0.3850  -0.3844  -0.3821  -0.3806  -0.3787  -0.3743
 -0.3730  -0.3702  -0.3667  -0.3663  -0.3659  -0.3629  -0.3618  -0.3603
 -0.3573  -0.3554  -0.3507  -0.3469  -0.3439  -0.3421  -0.3387  -0.3354
 -0.3325  -0.3324  -0.3303  -0.3299  -0.3250  -0.3235  -0.3147  -0.3138
 -0.3118  -0.3107  -0.3079  -0.3057  -0.3036  -0.2940  -0.2878  -0.2731
 -0.2633  -0.2547  -0.2516  -0.2483  -0.2465  -0.2456  -0.2444  -0.2411
 -0.2387  -0.2357  -0.2351  -0.2331  -0.2303  -0.2151  -0.2131  -0.2102
 -0.2088  -0.2067  -0.2052  -0.1947  -0.1619  -0.1612

 Beta MOs
 -- Occupied --
******** -30.0159 -25.8842 -25.8832 -25.8823 -19.0955 -19.0919 -19.0913
-19.0888 -19.0871 -19.0869 -19.0850 -19.0827 -19.0800 -19.0749 -19.0672
-14.3375 -14.3330 -14.3253 -14.3197 -14.2997 -14.2951 -10.2728 -10.2707
-10.2650 -10.2642 -10.2573 -10.2164 -10.2080 -10.2079 -10.2076 -10.2074
-10.2042 -10.2023 -10.2020 -10.2001 -10.1948 -10.1938 -10.1929 -10.1860
-10.1753 -10.1738 -10.1706 -10.1698 -10.1692 -10.1686 -10.1667 -10.1658
-10.1655 -10.1643 -10.1630 -10.1620 -10.1593 -10.1579 -10.1576 -10.1563
 -3.3742  -2.1367  -2.1366  -2.1351  -1.0220  -1.0175  -1.0154  -1.0121
 -1.0105  -0.9849  -0.9807  -0.9447  -0.9430  -0.9402  -0.9271  -0.9087
 -0.9067  -0.8968  -0.8934  -0.8865  -0.8863  -0.8155  -0.8149  -0.7775
 -0.7745  -0.7597  -0.7545  -0.7476  -0.7217  -0.7164  -0.7129  -0.7022
 -0.6957  -0.6918  -0.6822  -0.6603  -0.6525  -0.6258  -0.6194  -0.5993
 -0.5946  -0.5929  -0.5822  -0.5751  -0.5723  -0.5717  -0.5679  -0.5562
 -0.5543  -0.5465  -0.5421  -0.5376  -0.5099  -0.5017  -0.4997  -0.4845
 -0.4812  -0.4741  -0.4700  -0.4669  -0.4645  -0.4631  -0.4570  -0.4561
 -0.4525  -0.4510  -0.4480  -0.4454  -0.4423  -0.4384  -0.4360  -0.4354
 -0.4289  -0.4261  -0.4191  -0.4182  -0.4174  -0.4136  -0.4075  -0.4063
 -0.4031  -0.4021  -0.3990  -0.3983  -0.3971  -0.3930  -0.3916  -0.3892
 -0.3886  -0.3842  -0.3827  -0.3807  -0.3780  -0.3758  -0.3714  -0.3688
 -0.3652  -0.3622  -0.3607  -0.3586  -0.3559  -0.3545  -0.3517  -0.3451
 -0.3436  -0.3429  -0.3406  -0.3349  -0.3326  -0.3325  -0.3302  -0.3272
 -0.3244  -0.3146  -0.3138  -0.3125  -0.3111  -0.3079  -0.3058  -0.3038
 -0.2938  -0.2873  -0.2786  -0.2680  -0.2615  -0.2566  -0.2521  -0.2504
 -0.2474  -0.2463  -0.2437  -0.2418  -0.2389  -0.2364  -0.2353  -0.2343
 -0.2327  -0.2200  -0.2150  -0.2092  -0.2087  -0.2058  -0.2019  -0.1665
 -0.1596

          Ground-State Mulliken Net Atomic Charges

     Atom                 Charge (a.u.)    Spin (a.u.)
  --------------------------------------------------------
      1 C                     0.137263       0.000051
      2 C                    -0.080468       0.017405
      3 C                    -0.041049       0.003928
      4 C                     0.003083       0.002988
      5 C                    -0.037347       0.010196
      6 C                     0.123261       0.002955
      7 H                    -0.053008      -0.000217
      8 O                    -0.452978       0.110686
      9 C                     0.146544       0.000306
     10 O                    -0.366797       0.001581
     11 N                    -0.148943       0.000239
     12 H                     0.111694      -0.000024
     13 C                     0.094182      -0.000020
     14 H                     0.012858       0.000027
     15 H                     0.017476      -0.000000
     16 C                    -0.033843       0.000013
     17 H                     0.006859       0.000006
     18 H                     0.015909      -0.000002
     19 C                     0.070763       0.000009
     20 H                     0.012014      -0.000014
     21 H                    -0.000056      -0.000001
     22 N                    -0.231656       0.000045
     23 H                     0.084138      -0.000005
     24 C                    -0.037607       0.000066
     25 H                     0.038258      -0.000028
     26 H                    -0.012121      -0.000006
     27 C                     0.048291       0.000152
     28 H                    -0.006934       0.000014
     29 H                     0.044141      -0.000014
     30 C                     0.005927       0.000026
     31 H                    -0.012324       0.000003
     32 H                    -0.022421       0.000005
     33 C                     0.089619       0.000015
     34 H                     0.020272      -0.000115
     35 H                    -0.001541      -0.000011
     36 N                    -0.135391      -0.000214
     37 H                     0.147641       0.002299
     38 C                     0.079596      -0.000374
     39 O                    -0.378704       0.000130
     40 C                     0.173337       0.003124
     41 H                     0.029118       0.000294
     42 H                    -0.006373       0.001342
     43 C                     0.143814       0.003515
     44 H                     0.041271       0.000008
     45 H                    -0.016586       0.000532
     46 C                     0.059179      -0.000052
     47 O                    -0.366497       0.001050
     48 N                    -0.143290       0.001123
     49 C                     0.093353      -0.000024
     50 H                     0.155916       0.000561
     51 C                    -0.032260       0.000060
     52 H                     0.013583       0.000054
     53 H                     0.002274      -0.000006
     54 C                    -0.009129       0.000003
     55 H                    -0.005901       0.000015
     56 H                     0.017745      -0.000008
     57 C                     0.080938       0.000002
     58 H                    -0.012218       0.000007
     59 H                     0.004399       0.000003
     60 H                     0.000439       0.000002
     61 H                    -0.007000       0.000000
     62 C                     0.146260       0.000481
     63 C                    -0.020888       0.003335
     64 O                    -0.363557       0.000384
     65 C                    -0.038787       0.003892
     66 C                    -0.036479       0.015927
     67 C                    -0.044456       0.009359
     68 C                     0.123476       0.001040
     69 C                     0.135032       0.005115
     70 H                    -0.052660      -0.000008
     71 O                    -0.459727       0.130873
     72 C                    -0.123411       0.004968
     73 O                    -0.540415       0.142936
     74 C                     0.203958       0.003349
     75 O                    -0.378821       0.078163
     76 O                    -0.400107       0.012051
     77 H                    -0.046458      -0.000050
     78 O                    -0.461264       0.124925
     79 H                    -0.077515      -0.000241
     80 O                    -0.441165       0.114354
     81 Fe                    0.492017       4.184189
     82 N                    -0.255707       0.000010
     83 H                     0.082258      -0.000004
     84 N                    -0.130629       0.000618
     85 H                     0.106096       0.000031
     86 C                     0.087384       0.000047
     87 H                     0.020403       0.000001
     88 H                     0.017367       0.000015
     89 C                     0.001323       0.000050
     90 H                     0.000627       0.000036
     91 H                     0.006778      -0.000004
     92 C                     0.057734       0.000024
     93 H                     0.008455       0.000006
     94 H                     0.014415       0.000069
     95 H                    -0.064476       0.000202
     96 H                    -0.039773       0.000157
  --------------------------------------------------------
  Sum of atomic charges =    -3.000000

                    Cartesian Multipole Moments
 -----------------------------------------------------------------
    Charge (ESU x 10^10)
               -14.4096
    Dipole Moment (Debye)
         X      -7.1839      Y      -3.9826      Z       5.9331
       Tot      10.1327
    Quadrupole Moments (Debye-Ang)
        XX    -488.6998     XY      23.3122     YY    -438.0146
        XZ      15.8185     YZ     -31.1950     ZZ    -359.8318

 Final energy is -3742.941142599773
	**  OPTIMIZATION CONVERGED  **

             Standard Nuclear Orientation (Angstroms)
    I     Atom           X                Y                Z
 ----------------------------------------------------------------
    1      C       3.0176010645    -1.8048005398    -0.4448772090
    2      C       4.2892001857    -2.3465631739    -0.2483367199
    3      C       5.2982121553    -2.2203812347    -1.2367737035
    4      C       4.9867035469    -1.6145790603    -2.4615957551
    5      C       3.7265159898    -1.0410288016    -2.6715993350
    6      C       2.7539033977    -1.0641345270    -1.6568951258
    7      H       4.4865114380    -2.8568553839     0.6987507543
    8      O       1.5986100489    -0.4360451503    -1.7193467978
    9      C       6.7379334973    -2.4441611220    -0.9524892745
   10      O       7.5959692469    -2.5612803510    -1.8429973841
   11      N       7.0847909165    -2.4102010376     0.3784139280
   12      H       6.3402594124    -2.1219501204     1.0052229259
   13      C       8.4146384213    -1.9876199907     0.8035117004
   14      H       8.7420269273    -2.6023871633     1.6578816392
   15      H       9.0986147500    -2.1835135280    -0.0341162568
   16      C       8.4203281522    -0.5011307721     1.1930314285
   17      H       9.4068016184    -0.2547644439     1.6211438613
   18      H       7.6888630167    -0.3536939875     2.0074778683
   19      C       8.0858051277     0.4720257940     0.0273966645
   20      H       7.8010467218    -0.1038193789    -0.8670036171
   21      H       8.9998796667     1.0253064887    -0.2453131030
   22      N       7.0256760427     1.4566039723     0.2635248166
   23      H       7.2287201966     1.9597716061     1.1315273611
   24      C       4.6282106423     1.9800107002     0.5946062833
   25      H       3.6518077650     1.5017272543     0.7740373416
   26      H       4.8851651519     2.5088183563     1.5314044436
   27      C       5.6770532528     0.8913123303     0.3555775819
   28      H       5.5825079161     0.1267836329     1.1561858445
   29      H       5.4675957389     0.3587444279    -0.5870166386
   30      C       4.5020219702     2.9979117492    -0.5486554782
   31      H       4.1648604458     3.9700119774    -0.1597349033
   32      H       5.4976851271     3.1597391242    -0.9947591481
   33      C       3.5262433463     2.5867390271    -1.6617677476
   34      H       3.7727181937     1.5858727535    -2.0406547807
   35      H       3.6183847374     3.2987957820    -2.4995220044
   36      N       2.1331878172     2.5434589887    -1.2243561479
   37      H       1.6477037588     1.6439019464    -1.2037351509
   38      C       1.4587084072     3.6620262794    -0.8793253982
   39      O       1.9540500644     4.7965203552    -0.9807817142
   40      C       0.0403355790     3.4874177700    -0.3503483440
   41      H      -0.6573920858     3.5420799886    -1.2030276054
   42      H      -0.1477049198     4.3626089080     0.2857706267
   43      C      -1.5807409214     2.3136430942     1.2113994380
   44      H      -1.7452336842     1.3575577656     1.7331120818
   45      H      -1.4975380292     3.1152935000     1.9560526065
   46      C      -2.7773928324     2.6174751463     0.3204393749
   47      O      -3.4910660889     3.6169098907     0.4869916559
   48      N      -2.9728247404     1.7043118626    -0.6653397651
   49      C      -3.8275615605     1.9730489339    -1.8181315170
   50      H      -2.1388288324     1.1150373433    -0.8096056243
   51      C      -5.2369378637     1.3751217919    -1.7475708850
   52      H      -3.3114676329     1.5601172797    -2.6990000480
   53      H      -3.9011830899     3.0657382048    -1.9534655229
   54      C      -6.1533766346     2.0044761996    -0.6945591823
   55      H      -5.6972405223     1.5247910265    -2.7432092101
   56      H      -5.1716376222     0.2845141676    -1.6009869553
   57      C      -7.6352756145     1.6447857382    -0.8976295947
   58      H      -6.0584953875     3.1032550368    -0.7463463715
   59      H      -5.8203798295     1.7215946601     0.3193075821
   60      H      -8.2547198029     2.2652021196    -0.2259522442
   61      H      -7.9162709085     1.9261167666    -1.9297209297
   62      C      -5.7765062469    -2.3656260754    -0.4113233474
   63      C      -4.4292902922    -2.1808273202     0.1773059923
   64      O      -6.0371554185    -2.0326582456    -1.5860411240
   65      C      -4.2459823809    -1.9885042055     1.5565029196
   66      C      -3.3152003456    -2.0681996405    -0.6917814301
   67      C      -2.9801685315    -1.6752896629     2.0689294074
   68      C      -2.0422599377    -1.7707299698    -0.2026439731
   69      C      -1.8714120263    -1.5445596168     1.2152395204
   70      H      -2.8442391295    -1.4878055214     3.1379262223
   71      O      -0.9549445539    -1.6370091857    -0.9507473571
   72      C      -0.2492226976     2.1737142767     0.4103814472
   73      O      -0.3338292439     1.1088617940    -0.4879575100
   74      C       0.8797518565     1.9147159461     1.4476299455
   75      O       1.3981336112     0.7364815561     1.4042862414
   76      O       1.2129922653     2.8179430968     2.2338779073
   77      H       3.5023439701    -0.5104597439    -3.6014529489
   78      O       2.0228260772    -1.8780963691     0.4286243410
   79      H      -3.4632000722    -2.1928537992    -1.7667430035
   80      O      -0.6671390421    -1.1919622989     1.6145983569
   81      Fe      0.5004684264    -0.6069991231     0.0313163565
   82      N      -8.0323842958     0.2493372981    -0.6930238518
   83      H      -7.4307702272    -0.3602534264    -1.2539122332
   84      N      -6.7386165678    -2.9072352599     0.3952417697
   85      H      -6.4707831619    -3.1311032448     1.3471284395
   86      C      -8.1581876907    -2.6962131828     0.1498468563
   87      H      -8.2761764562    -2.5423265704    -0.9306563414
   88      H      -8.7116249647    -3.6090515810     0.4198862722
   89      C      -8.7139837185    -1.4983046193     0.9354169024
   90      H      -9.7743465707    -1.3658432571     0.6585071736
   91      H      -8.6838966405    -1.7327199088     2.0143742361
   92      C      -7.9605581739    -0.1856424635     0.7027355128
   93      H      -8.4302150808     0.5979079089     1.3219242961
   94      H      -6.9205773993    -0.2909435148     1.0763989380
   95      H       5.7722177419    -1.5222745294    -3.2131573059
   96      H      -5.0961202337    -2.0206178141     2.2409366561
 ----------------------------------------------------------------

 Total job time:  91220.97s(wall), 1518508.84s(cpu)
        *  Thank you very much for using Q-Chem.  Have a nice day.  *
