 Q-Chem 6.0, Q-Chem, Inc., Pleasanton, CA (2022)
 Q-Chem 6.0.2 for Intel X86 EM64T Linux

User input:
--------------------------------------------------------------
$molecule
-3 6
C    2.2952168   -2.3970518    0.7703194
C    3.2313232   -3.3226027    1.2252678
C    4.4854785   -3.3856052    0.6032160
C    4.7766536   -2.5606231   -0.5077966
C    3.7988521   -1.6622512   -0.9721533
C    2.5867489   -1.5654686   -0.3013855
H    3.0054480   -3.9603036    2.0699531
H    5.2188111   -4.0812714    0.9876907
O    1.6543459   -0.6617446   -0.6252389
C    6.1205806   -2.5228488   -1.1331255
O    6.2329841   -2.1755946   -2.3007061
N    7.2232757   -2.6932002   -0.3521002
H    7.0831348   -2.8727453    0.6533096
C    8.5467851   -2.2184873   -0.7214574
H    9.2837987   -2.8654012   -0.1978913
H    8.7491700   -2.2896177   -1.8123606
C    8.6981817   -0.7680150   -0.2004377
H    9.7677304   -0.4723180   -0.1306243
H    8.2987179   -0.7523897    0.8361946
C    7.9835209    0.2665938   -1.1104621
H    7.1902960   -0.1755399   -1.7230081
H    8.7191210    0.6339097   -1.8585082
N    7.3920430    1.3986267   -0.3799216
H    8.0673519    1.7952521    0.3143498
C    5.3093110    2.2881453    0.6589206
H    4.4172066    1.9948028    1.2547333
H    5.9624595    2.9090483    1.3067375
C    6.1157698    1.0330771    0.2706175
H    6.3215982    0.4338543    1.1830478
H    5.4935563    0.4076406   -0.3970468
C    4.8480458    3.1346608   -0.5507557
H    4.4836633    4.1182517   -0.1891894
H    5.7245642    3.3241674   -1.2062044
C    3.7207412    2.4773144   -1.3732207
H    4.0326233    1.4600661   -1.6789970
H    3.5429675    3.0427041   -2.3144029
N    2.4700465    2.4044179   -0.6308381
H    2.1477205    1.4925686   -0.3301410
C    1.6707688    3.4814357   -0.4130348
O    2.0154618    4.5813789   -0.8235915
C    0.3182754    3.3929695    0.2794789
H   -0.4141915    3.7505423   -0.4740028
H    0.3486930    4.1565972    1.0904273
C   -1.6266623    2.3788574    1.5405121
H   -2.0648171    1.5273152    2.0910821
H   -1.5165582    3.2109387    2.2725626
C   -2.5979066    2.8000455    0.4404945
O   -2.9750311    3.9630175    0.3968661
N   -2.9741051    1.9130678   -0.5281839
C   -3.6401934    2.2937672   -1.7606113
H   -2.6956141    0.9279157   -0.4461656
C   -4.9726691    1.5643413   -1.9795272
H   -2.9594401    2.0157250   -2.5951942
H   -3.7987218    3.3921687   -1.8318607
C   -6.0717867    2.0825336   -1.0409787
H   -5.2774208    1.8022413   -3.0223337
H   -4.8441640    0.4627580   -1.9006034
C   -7.4912965    1.6879204   -1.5058587
H   -6.0473471    3.1931749   -1.0928520
H   -5.8738888    1.7877993    0.0113597
H   -8.2350829    2.2766982   -0.9267713
H   -7.6142093    1.9977662   -2.5661451
C   -5.6713314   -2.6353170   -0.5722645
C   -4.4283871   -2.2659469    0.1637086
O   -5.6426103   -2.6638536   -1.7957350
C   -4.4752607   -1.8650725    1.5237919
C   -3.1957770   -2.1920027   -0.5237236
C   -3.3494118   -1.3407426    2.1520366
H   -5.3759459   -1.8843527    2.1125961
C   -2.0724475   -1.6860016    0.1320867
C   -2.1675042   -1.2263312    1.4380676
H   -3.4085447   -0.9988132    3.1772736
O   -0.8599535   -1.6005434   -0.4401400
C   -0.2138114    2.0562449    0.9314571
O   -0.3837620    1.0199056   -0.0281937
C    0.7950940    1.5996347    1.9819379
O    1.3726160    0.3905374    1.8193004
O    1.1319385    2.3268524    2.9037987
H    4.0015229   -0.9919723   -1.7983786
O    1.0862500   -2.2400707    1.3295497
H   -3.1129003   -2.4908670   -1.5616663
O   -1.0749262   -0.6567001    1.9559017
Fe    0.3120358   -0.6462286    0.6897439
N   -7.8099291    0.2556544   -1.3984026
H   -7.0744597   -0.3333611   -1.8502148
N   -6.8563448   -2.7877647    0.0850633
H   -6.8906512   -2.8474723    1.1091975
C   -8.1401207   -2.6908811   -0.5740695
H   -8.0375123   -2.5442863   -1.6704840
H   -8.7307547   -3.6160134   -0.4034906
C   -8.8773240   -1.4823720    0.0322779
H   -9.8554309   -1.3434183   -0.4748558
H   -9.0782288   -1.7029564    1.1046239
C   -8.0665483   -0.1663108   -0.0154267
H   -8.6765339    0.5987566    0.5130699
H   -7.1062829   -0.2633824    0.5386876
$end

$rem
BASIS  =  gen
DFT_D  =  D3_BJ
GUI  =  2
JOB_TYPE  =  Optimization
METHOD  =  B3LYP
BASIS GEN
PURECART 11
SCF_CONVERGENCE  =  8
SOLVENT_METHOD  =  PCM
$end

$pcm
THEORY  CPCM
$end

$solvent
DIELECTRIC  78.39
$end

$van_der_waals
26   2.44
$end

$basis
H     0
S   4   1.00
1.301000D+01           1.968500D-02
1.962000D+00           1.379770D-01
4.446000D-01           4.781480D-01
1.220000D-01           5.012400D-01
S   1   1.00
1.220000D-01           1.000000D+00
P   1   1.00
7.270000D-01           1.0000000
****
C     0
S   9   1.00
6.665000D+03           6.920000D-04
1.000000D+03           5.329000D-03
2.280000D+02           2.707700D-02
6.471000D+01           1.017180D-01
2.106000D+01           2.747400D-01
7.495000D+00           4.485640D-01
2.797000D+00           2.850740D-01
5.215000D-01           1.520400D-02
1.596000D-01          -3.191000D-03
S   9   1.00
6.665000D+03          -1.460000D-04
1.000000D+03          -1.154000D-03
2.280000D+02          -5.725000D-03
6.471000D+01          -2.331200D-02
2.106000D+01          -6.395500D-02
7.495000D+00          -1.499810D-01
2.797000D+00          -1.272620D-01
5.215000D-01           5.445290D-01
1.596000D-01           5.804960D-01
S   1   1.00
1.596000D-01           1.000000D+00
P   4   1.00
9.439000D+00           3.810900D-02
2.002000D+00           2.094800D-01
5.456000D-01           5.085570D-01
1.517000D-01           4.688420D-01
P   1   1.00
1.517000D-01           1.000000D+00
D   1   1.00
5.500000D-01           1.0000000
****
N     0
S   9   1.00
9.046000D+03           7.000000D-04
1.357000D+03           5.389000D-03
3.093000D+02           2.740600D-02
8.773000D+01           1.032070D-01
2.856000D+01           2.787230D-01
1.021000D+01           4.485400D-01
3.838000D+00           2.782380D-01
7.466000D-01           1.544000D-02
2.248000D-01          -2.864000D-03
S   9   1.00
9.046000D+03          -1.530000D-04
1.357000D+03          -1.208000D-03
3.093000D+02          -5.992000D-03
8.773000D+01          -2.454400D-02
2.856000D+01          -6.745900D-02
1.021000D+01          -1.580780D-01
3.838000D+00          -1.218310D-01
7.466000D-01           5.490030D-01
2.248000D-01           5.788150D-01
S   1   1.00
2.248000D-01           1.000000D+00
P   4   1.00
1.355000D+01           3.991900D-02
2.917000D+00           2.171690D-01
7.973000D-01           5.103190D-01
2.185000D-01           4.622140D-01
P   1   1.00
2.185000D-01           1.000000D+00
D   1   1.00
8.170000D-01           1.0000000
****
O     0
S   9   1.00
1.172000D+04           7.100000D-04
1.759000D+03           5.470000D-03
4.008000D+02           2.783700D-02
1.137000D+02           1.048000D-01
3.703000D+01           2.830620D-01
1.327000D+01           4.487190D-01
5.025000D+00           2.709520D-01
1.013000D+00           1.545800D-02
3.023000D-01          -2.585000D-03
S   9   1.00
1.172000D+04          -1.600000D-04
1.759000D+03          -1.263000D-03
4.008000D+02          -6.267000D-03
1.137000D+02          -2.571600D-02
3.703000D+01          -7.092400D-02
1.327000D+01          -1.654110D-01
5.025000D+00          -1.169550D-01
1.013000D+00           5.573680D-01
3.023000D-01           5.727590D-01
S   1   1.00
3.023000D-01           1.000000D+00
P   4   1.00
1.770000D+01           4.301800D-02
3.854000D+00           2.289130D-01
1.046000D+00           5.087280D-01
2.753000D-01           4.605310D-01
P   1   1.00
2.753000D-01           1.000000D+00
D   1   1.00
1.185000D+00           1.0000000
****
Fe     0
S   20   1.00
4.316265D+06           8.048803D-06
6.463424D+05           6.258306D-05
1.470897D+05           3.290239D-04
4.166152D+04           1.387355D-03
1.359077D+04           5.023256D-03
4.905750D+03           1.610140D-02
1.912746D+03           4.590034D-02
7.926043D+02           1.136154D-01
3.448065D+02           2.283869D-01
1.558999D+02           3.221159D-01
7.223091D+01           2.383661D-01
3.272506D+01           7.404667D-02
1.566762D+01           9.214197D-02
7.503483D+00           9.339790D-02
3.312223D+00           1.573965D-02
1.558471D+00          -4.186682D-04
6.839140D-01           5.376318D-05
1.467570D-01          -3.816654D-05
7.058300D-02           4.319603D-05
3.144900D-02          -3.401019D-06
S   20   1.00
4.316265D+06          -4.155954D-06
6.463424D+05          -3.231401D-05
1.470897D+05          -1.699525D-04
4.166152D+04          -7.171369D-04
1.359077D+04          -2.603625D-03
4.905750D+03          -8.399109D-03
1.912746D+03          -2.434109D-02
7.926043D+02          -6.251948D-02
3.448065D+02          -1.365929D-01
1.558999D+02          -2.312707D-01
7.223091D+01          -2.383734D-01
3.272506D+01           3.123837D-02
1.566762D+01           5.086818D-01
7.503483D+00           4.987695D-01
3.312223D+00           9.033552D-02
1.558471D+00          -6.005337D-03
6.839140D-01           2.312454D-04
1.467570D-01          -5.643680D-04
7.058300D-02           4.992260D-04
3.144900D-02          -1.015293D-04
S   20   1.00
4.316265D+06           9.532178D-07
6.463424D+05           7.414605D-06
1.470897D+05           3.898393D-05
4.166152D+04           1.647152D-04
1.359077D+04           5.985980D-04
4.905750D+03           1.942390D-03
1.912746D+03           5.687237D-03
7.926043D+02           1.501329D-02
3.448065D+02           3.452455D-02
1.558999D+02           6.495820D-02
7.223091D+01           7.716194D-02
3.272506D+01          -1.873411D-02
1.566762D+01          -3.009185D-01
7.503483D+00          -4.554661D-01
3.312223D+00           1.286463D-01
1.558471D+00           7.183316D-01
6.839140D-01           4.051743D-01
1.467570D-01           2.168227D-02
7.058300D-02          -8.343566D-03
3.144900D-02           3.658979D-03

   19   -3742.8275824317      6.73e-09  Convergence criterion met
 Total energy in the final basis set =    -3742.8275824317
   15   -3742.8886763719      8.29e-09  Convergence criterion met
 Total energy in the final basis set =    -3742.8886763719
   15   -3742.9150273008      9.28e-09  Convergence criterion met
 Total energy in the final basis set =    -3742.9150273008
   16   -3742.9223924345      4.91e-09  Convergence criterion met
 Total energy in the final basis set =    -3742.9223924345
   16   -3742.9306620969      5.94e-09  Convergence criterion met
 Total energy in the final basis set =    -3742.9306620969
   16   -3742.9323995388      6.42e-09  Convergence criterion met
 Total energy in the final basis set =    -3742.9323995388
   16   -3742.9354075024      5.54e-09  Convergence criterion met
 Total energy in the final basis set =    -3742.9354075024
   16   -3742.9367744285      5.94e-09  Convergence criterion met
   17   -3742.9424441398      3.50e-09  Convergence criterion met
 Total energy in the final basis set =    -3742.9424441398
   17   -3742.9424471571      3.59e-09  Convergence criterion met
 Total energy in the final basis set =    -3742.9424471571
   16   -3742.9424494140      7.92e-09  Convergence criterion met
 Total energy in the final basis set =    -3742.9424494140
   16   -3742.9424509105      7.96e-09  Convergence criterion met
 Total energy in the final basis set =    -3742.9424509105
   16   -3742.9424520146      8.76e-09  Convergence criterion met
 Total energy in the final basis set =    -3742.9424520146
   17   -3742.9424530421      2.67e-09  Convergence criterion met
 Total energy in the final basis set =    -3742.9424530421
   17   -3742.9424537963      2.77e-09  Convergence criterion met
 Total energy in the final basis set =    -3742.9424537963

                    Orbital Energies (a.u.)
 --------------------------------------------------------------

 Alpha MOs
 -- Occupied --
******** -30.1078 -25.9617 -25.9589 -25.9579 -19.0954 -19.0923 -19.0921
-19.0909 -19.0876 -19.0873 -19.0870 -19.0867 -19.0843 -19.0754 -19.0714
-14.3377 -14.3357 -14.3267 -14.3194 -14.3000 -14.2956 -10.2726 -10.2707
-10.2654 -10.2637 -10.2580 -10.2161 -10.2083 -10.2080 -10.2068 -10.2062
-10.2021 -10.2018 -10.2016 -10.2013 -10.1946 -10.1937 -10.1930 -10.1879
-10.1755 -10.1737 -10.1708 -10.1694 -10.1682 -10.1676 -10.1675 -10.1675
-10.1666 -10.1661 -10.1647 -10.1641 -10.1581 -10.1574 -10.1562 -10.1560
 -3.5901  -2.3679  -2.3627  -2.3603  -1.0248  -1.0174  -1.0153  -1.0119
 -1.0115  -0.9896  -0.9859  -0.9508  -0.9489  -0.9485  -0.9322  -0.9089
 -0.9073  -0.8969  -0.8937  -0.8872  -0.8864  -0.8159  -0.8154  -0.7781
 -0.7769  -0.7609  -0.7551  -0.7491  -0.7215  -0.7170  -0.7147  -0.7037
 -0.6977  -0.6912  -0.6818  -0.6608  -0.6533  -0.6262  -0.6196  -0.6004
 -0.5958  -0.5938  -0.5778  -0.5756  -0.5736  -0.5729  -0.5721  -0.5571
 -0.5551  -0.5534  -0.5426  -0.5387  -0.5131  -0.5035  -0.5014  -0.4863
 -0.4819  -0.4804  -0.4711  -0.4674  -0.4671  -0.4652  -0.4623  -0.4591
 -0.4571  -0.4541  -0.4528  -0.4479  -0.4461  -0.4420  -0.4412  -0.4378
 -0.4334  -0.4276  -0.4254  -0.4220  -0.4169  -0.4151  -0.4126  -0.4113
 -0.4093  -0.4071  -0.4044  -0.4040  -0.4012  -0.3984  -0.3962  -0.3928
 -0.3894  -0.3869  -0.3856  -0.3834  -0.3833  -0.3781  -0.3767  -0.3762
 -0.3726  -0.3717  -0.3691  -0.3661  -0.3630  -0.3614  -0.3607  -0.3601
 -0.3586  -0.3539  -0.3498  -0.3478  -0.3456  -0.3439  -0.3369  -0.3353
 -0.3338  -0.3321  -0.3315  -0.3303  -0.3257  -0.3237  -0.3179  -0.3142
 -0.3120  -0.3099  -0.3080  -0.3062  -0.3036  -0.2936  -0.2921  -0.2736
 -0.2632  -0.2529  -0.2505  -0.2487  -0.2469  -0.2458  -0.2445  -0.2416
 -0.2366  -0.2359  -0.2354  -0.2352  -0.2302  -0.2120  -0.2106  -0.2094
 -0.2088  -0.2079  -0.2052  -0.1933  -0.1608  -0.1606

 Beta MOs
 -- Occupied --
******** -30.0145 -25.8828 -25.8816 -25.8809 -19.0954 -19.0921 -19.0908
-19.0894 -19.0870 -19.0838 -19.0834 -19.0825 -19.0800 -19.0750 -19.0668
-14.3377 -14.3357 -14.3267 -14.3193 -14.3000 -14.2956 -10.2726 -10.2707
-10.2654 -10.2637 -10.2580 -10.2160 -10.2083 -10.2080 -10.2068 -10.2063
-10.2021 -10.2019 -10.2017 -10.2013 -10.1946 -10.1937 -10.1930 -10.1879
-10.1755 -10.1737 -10.1707 -10.1694 -10.1682 -10.1676 -10.1675 -10.1674
-10.1665 -10.1661 -10.1647 -10.1641 -10.1579 -10.1572 -10.1560 -10.1558
 -3.3729  -2.1358  -2.1348  -2.1338  -1.0220  -1.0174  -1.0152  -1.0117
 -1.0115  -0.9827  -0.9790  -0.9440  -0.9408  -0.9400  -0.9272  -0.9089
 -0.9072  -0.8968  -0.8931  -0.8872  -0.8864  -0.8150  -0.8145  -0.7778
 -0.7768  -0.7600  -0.7549  -0.7483  -0.7212  -0.7163  -0.7140  -0.7029
 -0.6967  -0.6904  -0.6814  -0.6604  -0.6530  -0.6259  -0.6195  -0.5995
 -0.5952  -0.5929  -0.5770  -0.5749  -0.5728  -0.5723  -0.5718  -0.5565
 -0.5544  -0.5523  -0.5423  -0.5386  -0.5103  -0.5016  -0.4993  -0.4845
 -0.4812  -0.4753  -0.4690  -0.4665  -0.4640  -0.4615  -0.4600  -0.4568
 -0.4532  -0.4508  -0.4462  -0.4451  -0.4407  -0.4393  -0.4385  -0.4352
 -0.4302  -0.4261  -0.4191  -0.4171  -0.4152  -0.4135  -0.4084  -0.4071
 -0.4045  -0.4028  -0.3999  -0.3983  -0.3972  -0.3932  -0.3904  -0.3897
 -0.3850  -0.3835  -0.3819  -0.3805  -0.3769  -0.3761  -0.3704  -0.3686
 -0.3650  -0.3612  -0.3606  -0.3598  -0.3569  -0.3551  -0.3514  -0.3454
 -0.3447  -0.3422  -0.3386  -0.3362  -0.3337  -0.3324  -0.3311  -0.3278
 -0.3246  -0.3179  -0.3144  -0.3124  -0.3099  -0.3081  -0.3068  -0.3035
 -0.2941  -0.2915  -0.2789  -0.2688  -0.2614  -0.2554  -0.2509  -0.2490
 -0.2474  -0.2461  -0.2436  -0.2407  -0.2391  -0.2363  -0.2351  -0.2350
 -0.2340  -0.2205  -0.2110  -0.2102  -0.2090  -0.2055  -0.2025  -0.1651
 -0.1592

          Ground-State Mulliken Net Atomic Charges

     Atom                 Charge (a.u.)    Spin (a.u.)
  --------------------------------------------------------
      1 C                     0.131135       0.001496
      2 C                    -0.044272       0.012250
      3 C                    -0.032052       0.001691
      4 C                    -0.024923       0.005745
      5 C                    -0.045671       0.013989
      6 C                     0.130208       0.003677
      7 H                    -0.054532      -0.000108
      8 H                    -0.045973       0.000266
      9 O                    -0.475357       0.126127
     10 C                     0.141688       0.000211
     11 O                    -0.369273       0.000593
     12 N                    -0.137411       0.000780
     13 H                     0.112703       0.000072
     14 C                     0.097287      -0.000008
     15 H                     0.014751       0.000047
     16 H                     0.019245       0.000014
     17 C                    -0.024444       0.000057
     18 H                     0.005694       0.000004
     19 H                     0.008883       0.000001
     20 C                     0.072181       0.000001
     21 H                     0.009695       0.000010
     22 H                    -0.001086      -0.000000
     23 N                    -0.229338       0.000029
     24 H                     0.083358       0.000002
     25 C                    -0.004453       0.000013
     26 H                     0.007431      -0.000015
     27 H                    -0.006506      -0.000003
     28 C                     0.054072       0.000007
     29 H                    -0.010026      -0.000012
     30 H                     0.032267      -0.000008
     31 C                     0.012433      -0.000002
     32 H                    -0.013211       0.000008
     33 H                    -0.021012       0.000007
     34 C                     0.092421       0.000051
     35 H                     0.014325       0.000039
     36 H                    -0.001108      -0.000016
     37 N                    -0.141258      -0.000007
     38 H                     0.152614       0.002867
     39 C                     0.091390      -0.000443
     40 O                    -0.383668       0.000118
     41 C                     0.162978       0.003040
     42 H                     0.030316       0.000261
     43 H                    -0.000608       0.001477
     44 C                     0.145846       0.002974
     45 H                     0.045354       0.000215
     46 H                    -0.019005       0.000500
     47 C                     0.056597      -0.000059
     48 O                    -0.367143       0.000898
     49 N                    -0.142130       0.001015
     50 C                     0.090806      -0.000041
     51 H                     0.156471       0.000706
     52 C                    -0.028338       0.000057
     53 H                     0.013337       0.000061
     54 H                     0.002264      -0.000011
     55 C                    -0.009209       0.000003
     56 H                    -0.005346       0.000015
     57 H                     0.016563      -0.000011
     58 C                     0.081771       0.000002
     59 H                    -0.011235       0.000009
     60 H                     0.003580       0.000006
     61 H                     0.000314       0.000001
     62 H                    -0.007436       0.000000
     63 C                     0.143404       0.000479
     64 C                    -0.018395       0.002916
     65 O                    -0.364674       0.000354
     66 C                    -0.038382       0.004128
     67 C                    -0.035799       0.015760
     68 C                    -0.044741       0.008721
     69 H                    -0.038761       0.000147
     70 C                     0.125206       0.000713
     71 C                     0.136894       0.005605
     72 H                    -0.053520       0.000036
     73 O                    -0.463123       0.129304
     74 C                    -0.125012       0.004391
     75 O                    -0.541412       0.140487
     76 C                     0.192274       0.003344
     77 O                    -0.380831       0.078098
     78 O                    -0.395080       0.012274
     79 H                    -0.061590      -0.000201
     80 O                    -0.449750       0.114665
     81 H                    -0.078396      -0.000240
     82 O                    -0.443390       0.109830
     83 Fe                    0.484496       4.187703
     84 N                    -0.256297       0.000007
     85 H                     0.081563      -0.000004
     86 N                    -0.129930       0.000552
     87 H                     0.106052       0.000037
     88 C                     0.087711       0.000047
     89 H                     0.020786       0.000002
     90 H                     0.017518       0.000014
     91 C                     0.000396       0.000042
     92 H                     0.001028       0.000033
     93 H                     0.007614      -0.000003
     94 C                     0.056105       0.000024
     95 H                     0.008422       0.000006
     96 H                     0.015663       0.000065
  --------------------------------------------------------
  Sum of atomic charges =    -3.000000

                    Cartesian Multipole Moments
 -----------------------------------------------------------------
    Charge (ESU x 10^10)
               -14.4096
    Dipole Moment (Debye)
         X      -1.1129      Y      -2.7991      Z      -1.2088
       Tot       3.2457
    Quadrupole Moments (Debye-Ang)
        XX    -420.3537     XY       7.1531     YY    -430.9696
        XZ       1.8826     YZ     -23.6360     ZZ    -377.9742

 Final energy is -3742.942453796311
	**  OPTIMIZATION CONVERGED  **

             Standard Nuclear Orientation (Angstroms)
    I     Atom           X                Y                Z
 ----------------------------------------------------------------
    1      C       2.6223359777    -2.4122240864     0.8847781398
    2      C       3.6963468447    -3.1931240401     1.3520745445
    3      C       4.9262872972    -3.2011628005     0.6783431304
    4      C       5.0908693083    -2.4662509542    -0.5054714149
    5      C       3.9967195843    -1.7378183332    -1.0267944270
    6      C       2.7883518086    -1.6575648676    -0.3350600770
    7      H       3.5603715462    -3.7746450549     2.2687980961
    8      H       5.7524936177    -3.7945058537     1.0776046089
    9      O       1.7629443652    -0.8992572938    -0.7079232673
   10      C       6.4057446922    -2.2825394679    -1.1735890544
   11      O       6.5144260166    -2.0084064746    -2.3811056105
   12      N       7.4942653647    -2.3645714828    -0.3493986470
   13      H       7.3037364364    -2.3840850512     0.6462387271
   14      C       8.8232227370    -1.9178640672    -0.7353264949
   15      H       9.5642506598    -2.6109366273    -0.3043173682
   16      H       8.8888858357    -1.9952692353    -1.8295510364
   17      C       9.1356425103    -0.4841341888    -0.2781538765
   18      H      10.2186072332    -0.3242818768    -0.4191642292
   19      H       8.9555556074    -0.4066209180     0.8096821719
   20      C       8.3504150329     0.6434867527    -1.0108191353
   21      H       7.7957490722     0.2097116159    -1.8583440984
   22      H       9.0828420116     1.3467651547    -1.4414503685
   23      N       7.4022103740     1.4392111572    -0.2287983350
   24      H       7.8689028326     1.7921361119     0.6098792162
   25      C       5.1249306931     1.7377987587     0.6974178937
   26      H       4.2639820628     1.1693705344     1.0901860433
   27      H       5.5605282435     2.2758088797     1.5585117098
   28      C       6.1683942729     0.7541052085     0.1550301994
   29      H       6.3239361735    -0.0610121894     0.8908180413
   30      H       5.7700625417     0.2742497401    -0.7502832855
   31      C       4.6514840762     2.7400675443    -0.3635897908
   32      H       4.2771525496     3.6644676191     0.0998880472
   33      H       5.5242223102     3.0217970173    -0.9754550951
   34      C       3.5505633306     2.2050170000    -1.2929443354
   35      H       3.7712408687     1.1746636822    -1.6037832932
   36      H       3.5122041414     2.8318776463    -2.1994952665
   37      N       2.2245167645     2.1939622599    -0.6811555854
   38      H       1.7295701848     1.3051820123    -0.5675121639
   39      C       1.5482155888     3.3506092218    -0.4981894161
   40      O       2.0395256650     4.4554816490    -0.7821203802
   41      C       0.1359171853     3.2778242019     0.0646527859
   42      H      -0.5546008228     3.4215142018    -0.7842443807
   43      H       0.0308734094     4.1556076624     0.7170973536
   44      C      -1.6789833570     2.2093642684     1.4650934811
   45      H      -1.9429168100     1.2694221755     1.9733639187
   46      H      -1.6400604480     3.0194083122     2.2048738479
   47      C      -2.7525470596     2.5545311216     0.4425955871
   48      O      -3.4366532893     3.5851784894     0.5181546744
   49      N      -2.8720256396     1.6430903584    -0.5573929957
   50      C      -3.5428453068     1.9518854189    -1.8171118256
   51      H      -2.0645270973     1.0033618358    -0.5910345163
   52      C      -4.9718488879     1.4195006417    -1.9645882033
   53      H      -2.9212144666     1.5222540845    -2.6186380949
   54      H      -3.5479157334     3.0474997445    -1.9482902493
   55      C      -6.0122657687     2.1046539981    -1.0736639787
   56      H      -5.2595524568     1.5824170930    -3.0208764811
   57      H      -4.9826665692     0.3286192322    -1.8077331144
   58      C      -7.4611209340     1.8348180996    -1.5194296916
   59      H      -5.8469371524     3.1961786640    -1.1055508793
   60      H      -5.8715945869     1.8078574827    -0.0203700672
   61      H      -8.1381435406     2.5134501250    -0.9710325668
   62      H      -7.5467496999     2.1065365974    -2.5877987537
   63      C      -5.9585988401    -2.2269959977    -0.6502324704
   64      C      -4.7160179567    -2.0559974103     0.1378652959
   65      O      -6.0106600445    -1.9606937492    -1.8689455687
   66      C      -4.7482846470    -1.7377592312     1.5055205662
   67      C      -3.4707570743    -2.0869788627    -0.5368655102
   68      C      -3.5651549798    -1.4341383903     2.1913043111
   69      H      -5.6984478792    -1.6636199471     2.0389431996
   70      C      -2.2768223618    -1.8105955526     0.1307889482
   71      C      -2.3248765796    -1.4483656550     1.5303688811
   72      H      -3.5929195787    -1.1460465913     3.2461466569
   73      O      -1.0759400721    -1.8208236777    -0.4344450342
   74      C      -0.2733991716     1.9964655768     0.8149559516
   75      O      -0.2988838512     0.9069931699    -0.0594790144
   76      C       0.7270304649     1.7342189250     1.9786806813
   77      O       1.1692785685     0.5255108420     2.0567942284
   78      O       1.0316990235     2.6596718188     2.7493079233
   79      H       4.1316049816    -1.1598762891    -1.9432258805
   80      O       1.4589518882    -2.3058559126     1.4945028591
   81      H      -3.4483237157    -2.3130988363    -1.6053933883
   82      O      -1.1837608516    -1.1210305494     2.0992966868
   83      Fe      0.2894880789    -0.8306962879     0.6968927512
   84      N      -7.9878585892     0.4762689946    -1.3609631119
   85      H      -7.3435530083    -0.1903495262    -1.7950857384
   86      N      -7.0620686895    -2.6765543728     0.0190840712
   87      H      -6.9602949037    -2.8504359703     1.0129285296
   88      C      -8.4114775342    -2.4309278862    -0.4692895481
   89      H      -8.3391627067    -2.3213812303    -1.5593385678
   90      H      -9.0388976911    -3.3121217399    -0.2628449842
   91      C      -9.0413546442    -1.1814470322     0.1647244623
   92      H     -10.0260596570    -1.0155605669    -0.3056953073
   93      H      -9.2187345092    -1.3735851490     1.2377645324
   94      C      -8.1943429212     0.0866059459     0.0355286089
   95      H      -8.7292332102     0.9123119262     0.5357083300
   96      H      -7.2467965389    -0.0500308964     0.5957438818
 ----------------------------------------------------------------

 Total job time:  234395.53s(wall), 3647368.09s(cpu)
        *  Thank you very much for using Q-Chem.  Have a nice day.  *
