 Q-Chem 6.0, Q-Chem, Inc., Pleasanton, CA (2022)
 Q-Chem 6.0.2 for Intel X86 EM64T Linux

User input:
--------------------------------------------------------------
$molecule
-3 6
C    3.0648546   -1.7468212   -0.8829892
C    4.2853609   -2.3038772   -0.4961913
C    5.4729390   -2.0482227   -1.2293582
C    5.4013581   -1.2943339   -2.4086290
C    4.1936943   -0.7061660   -2.8045894
C    3.0344048   -0.8589992   -2.0233155
H    4.3002767   -2.9278338    0.4021751
O    1.9021996   -0.2274461   -2.2434662
C    6.8273963   -2.3035478   -0.6791290
O    7.8552643   -2.3104720   -1.3766074
N    6.8872263   -2.4385285    0.6891143
H    6.0219805   -2.2204535    1.1728731
C    8.0882239   -2.0799953    1.4361399
H    8.2444138   -2.8024618    2.2539235
H    8.9373736   -2.1656089    0.7437957
C    7.9761970   -0.6573639    2.0047312
H    8.8386546   -0.4739573    2.6676141
H    7.0791761   -0.6100922    2.6473777
C    7.8834134    0.4595028    0.9275039
H    7.8064854    0.0054965   -0.0730754
H    8.8231136    1.0362774    0.9299111
N    6.7757111    1.4119094    1.0572093
H    6.7781315    1.7923207    2.0076749
C    4.3440617    1.8780382    0.9609417
H    3.3682707    1.3741755    0.8730556
H    4.3936957    2.2675851    1.9947547
C    5.4539055    0.8386035    0.7894968
H    5.2214603   -0.0334985    1.4373750
H    5.4581613    0.4484590   -0.2415465
C    4.4115580    3.0470245   -0.0326612
H    3.9794471    3.9545465    0.4138332
H    5.4691952    3.2699060   -0.2519465
C    3.6766684    2.7949810   -1.3588500
H    4.0173035    1.8560907   -1.8160144
H    3.9111438    3.6158631   -2.0581969
N    2.2281191    2.6923714   -1.2082014
H    1.7624626    1.8063881   -1.4191432
C    1.4691631    3.7457158   -0.8329290
O    1.9444992    4.8821686   -0.6687079
C   -0.0165623    3.4912823   -0.6071602
H   -0.5613324    3.7139517   -1.5379294
H   -0.3331508    4.2348971    0.1358567
C   -1.8527035    2.0008388    0.3867381
H   -2.0082016    0.9815846    0.7681495
H   -1.9656306    2.7172209    1.2130941
C   -2.8778301    2.3362140   -0.6760370
O   -3.1041350    3.5066866   -1.0219310
N   -3.5155319    1.2741833   -1.2274388
C   -4.4800139    1.3897366   -2.3111180
H   -3.2520023    0.3416518   -0.9186610
C   -5.9159748    1.0908289   -1.8699935
H   -4.1856723    0.6937136   -3.1126844
H   -4.4014108    2.4161292   -2.6972095
C   -6.4581339    2.0763940   -0.8341386
H   -6.5613190    1.1028867   -2.7673497
H   -5.9579802    0.0645730   -1.4739718
C   -7.8341203    1.6804388   -0.2713565
H   -6.5369677    3.0823965   -1.2845312
H   -5.7349429    2.1695195   -0.0066987
H   -8.1904056    2.4888920    0.3931374
H   -8.5577847    1.6147042   -1.1033857
C   -5.8415242   -2.2973998   -0.0893568
C   -4.2475082   -2.3633833   -1.9824832
O   -6.8307514   -2.2052108   -0.8478590
C   -4.4537405   -2.2191205   -0.6036270
C   -2.9770981   -2.1866972   -2.5440561
C   -3.3473245   -1.8941637    0.2253965
C   -1.8744467   -1.8386078   -1.7394323
C   -2.0704386   -1.7081315   -0.3109210
H   -3.4683607   -1.7215634    1.2981697
O   -0.6679789   -1.5865617   -2.1926078
C   -0.3909741    2.0610511   -0.1593338
O   -0.2414225    1.1713419   -1.2186646
C    0.5184000    1.6487016    1.0369677
O    1.0605445    0.4849177    0.9285802
O    0.6650878    2.4198320    2.0008319
H    4.1481247   -0.0644666   -3.6893129
O    1.9161540   -1.9324116   -0.2491644
H   -2.8277964   -2.2847023   -3.6232769
O   -1.0088042   -1.3571568    0.3981876
Fe    0.4797277   -0.6059448   -0.7844158
N   -7.9118623    0.4208953    0.4759681
H   -7.7024295   -0.3594075   -0.1527663
N   -6.0048326   -2.4538325    1.2557616
H   -5.1738579   -2.4966119    1.8337784
C   -7.2702078   -2.1941782    1.9247661
H   -8.0577735   -2.3076894    1.1689668
H   -7.4342543   -2.9623242    2.6968379
C   -7.3316955   -0.7986106    2.5667351
H   -8.3474277   -0.6584809    2.9757867
H   -6.6284779   -0.7619604    3.4173413
C   -6.9978025    0.3555984    1.6179849
H   -7.0884397    1.3030823    2.1772284
H   -5.9319225    0.2777540    1.3186987
H   -5.1058366   -2.5938159   -2.6148737
H    6.3212826   -1.1045713   -2.9639862
$end

$rem
BASIS  =  gen
DFT_D  =  D3_BJ
GUI  =  2
JOB_TYPE  =  Optimization
METHOD  =  B3LYP
SCF_CONVERGENCE  =  8
SOLVENT_METHOD  =  PCM
$end

$pcm
THEORY  CPCM
$end

$solvent
DIELECTRIC  78.39
$end

$van_der_waals
26   2.44
$end

!----------------------------------------------------------------------
! Basis Set Exchange
! Basis set: cc-pVDZ
!----------------------------------------------------------------------

$rem
BASIS GEN
PURECART 11
$end

$basis
H     0
S   4   1.00
1.301000D+01           1.968500D-02
1.962000D+00           1.379770D-01
4.446000D-01           4.781480D-01
1.220000D-01           5.012400D-01
S   1   1.00
1.220000D-01           1.000000D+00
P   1   1.00
7.270000D-01           1.0000000
****
C     0
S   9   1.00
6.665000D+03           6.920000D-04
1.000000D+03           5.329000D-03
2.280000D+02           2.707700D-02
6.471000D+01           1.017180D-01
2.106000D+01           2.747400D-01
7.495000D+00           4.485640D-01
2.797000D+00           2.850740D-01
5.215000D-01           1.520400D-02
1.596000D-01          -3.191000D-03
S   9   1.00
6.665000D+03          -1.460000D-04
1.000000D+03          -1.154000D-03
2.280000D+02          -5.725000D-03
6.471000D+01          -2.331200D-02
2.106000D+01          -6.395500D-02
7.495000D+00          -1.499810D-01
2.797000D+00          -1.272620D-01
5.215000D-01           5.445290D-01
1.596000D-01           5.804960D-01
S   1   1.00
1.596000D-01           1.000000D+00
P   4   1.00
9.439000D+00           3.810900D-02
2.002000D+00           2.094800D-01
5.456000D-01           5.085570D-01
1.517000D-01           4.688420D-01
P   1   1.00
1.517000D-01           1.000000D+00
D   1   1.00
5.500000D-01           1.0000000
****
N     0
S   9   1.00
9.046000D+03           7.000000D-04
1.357000D+03           5.389000D-03
3.093000D+02           2.740600D-02
8.773000D+01           1.032070D-01
2.856000D+01           2.787230D-01
1.021000D+01           4.485400D-01
3.838000D+00           2.782380D-01
7.466000D-01           1.544000D-02
2.248000D-01          -2.864000D-03
S   9   1.00
9.046000D+03          -1.530000D-04
1.357000D+03          -1.208000D-03
3.093000D+02          -5.992000D-03
8.773000D+01          -2.454400D-02
2.856000D+01          -6.745900D-02
1.021000D+01          -1.580780D-01
3.838000D+00          -1.218310D-01
7.466000D-01           5.490030D-01
2.248000D-01           5.788150D-01
S   1   1.00
2.248000D-01           1.000000D+00
P   4   1.00
1.355000D+01           3.991900D-02
2.917000D+00           2.171690D-01
7.973000D-01           5.103190D-01
2.185000D-01           4.622140D-01
P   1   1.00
2.185000D-01           1.000000D+00
D   1   1.00
8.170000D-01           1.0000000
****
O     0
S   9   1.00
1.172000D+04           7.100000D-04
1.759000D+03           5.470000D-03
4.008000D+02           2.783700D-02
1.137000D+02           1.048000D-01
3.703000D+01           2.830620D-01
1.327000D+01           4.487190D-01
5.025000D+00           2.709520D-01
1.013000D+00           1.545800D-02
3.023000D-01          -2.585000D-03
S   9   1.00
1.172000D+04          -1.600000D-04
1.759000D+03          -1.263000D-03
4.008000D+02          -6.267000D-03
1.137000D+02          -2.571600D-02
3.703000D+01          -7.092400D-02
1.327000D+01          -1.654110D-01
5.025000D+00          -1.169550D-01
1.013000D+00           5.573680D-01
3.023000D-01           5.727590D-01
S   1   1.00
3.023000D-01           1.000000D+00
P   4   1.00
1.770000D+01           4.301800D-02
3.854000D+00           2.289130D-01
1.046000D+00           5.087280D-01
2.753000D-01           4.605310D-01
P   1   1.00
2.753000D-01           1.000000D+00
D   1   1.00
1.185000D+00           1.0000000
****
Fe     0
S   20   1.00
4.316265D+06           8.048803D-06
6.463424D+05           6.258306D-05
1.470897D+05           3.290239D-04
4.166152D+04           1.387355D-03
1.359077D+04           5.023256D-03
4.905750D+03           1.610140D-02
1.912746D+03           4.590034D-02
7.926043D+02           1.136154D-01
3.448065D+02           2.283869D-01
1.558999D+02           3.221159D-01
7.223091D+01           2.383661D-01
3.272506D+01           7.404667D-02
1.566762D+01           9.214197D-02
7.503483D+00           9.339790D-02
3.312223D+00           1.573965D-02
1.558471D+00          -4.186682D-04
6.839140D-01           5.376318D-05
1.467570D-01          -3.816654D-05
7.058300D-02           4.319603D-05
3.144900D-02          -3.401019D-06
S   20   1.00
4.316265D+06          -4.155954D-06
6.463424D+05          -3.231401D-05
1.470897D+05          -1.699525D-04
4.166152D+04          -7.171369D-04
1.359077D+04          -2.603625D-03
4.905750D+03          -8.399109D-03
1.912746D+03          -2.434109D-02
7.926043D+02          -6.251948D-02
3.448065D+02          -1.365929D-01
1.558999D+02          -2.312707D-01
7.223091D+01          -2.383734D-01
3.272506D+01           3.123837D-02
1.566762D+01           5.086818D-01
7.503483D+00           4.987695D-01
3.312223D+00           9.033552D-02
1.558471D+00          -6.005337D-03
6.839140D-01           2.312454D-04
1.467570D-01          -5.643680D-04
7.058300D-02           4.992260D-04
3.144900D-02          -1.015293D-04
S   20   1.00
4.316265D+06           9.532178D-07
6.463424D+05           7.414605D-06
1.470897D+05           3.898393D-05
4.166152D+04           1.647152D-04
1.359077D+04           5.985980D-04
4.905750D+03           1.942390D-03

   20   -3742.9452622186      9.52e-09  Convergence criterion met
 Total energy in the final basis set =    -3742.9452622186
   17   -3742.9452656356      5.75e-09  Convergence criterion met
 Total energy in the final basis set =    -3742.9452656356

                    Orbital Energies (a.u.)
 --------------------------------------------------------------

 Alpha MOs
 -- Occupied --
******** -30.1080 -25.9620 -25.9595 -25.9578 -19.0944 -19.0916 -19.0906
-19.0897 -19.0894 -19.0893 -19.0852 -19.0852 -19.0849 -19.0745 -19.0664
-14.3391 -14.3336 -14.3326 -14.3235 -14.2999 -14.2953 -10.2735 -10.2702
-10.2675 -10.2628 -10.2555 -10.2137 -10.2101 -10.2084 -10.2075 -10.2070
-10.2052 -10.2032 -10.2027 -10.1999 -10.1948 -10.1940 -10.1939 -10.1861
-10.1755 -10.1738 -10.1699 -10.1679 -10.1674 -10.1670 -10.1660 -10.1659
-10.1657 -10.1650 -10.1632 -10.1628 -10.1620 -10.1597 -10.1587 -10.1570
 -3.5900  -2.3678  -2.3630  -2.3597  -1.0237  -1.0174  -1.0150  -1.0134
 -1.0086  -0.9917  -0.9881  -0.9509  -0.9500  -0.9459  -0.9296  -0.9091
 -0.9065  -0.9034  -0.8941  -0.8868  -0.8866  -0.8176  -0.8153  -0.7784
 -0.7742  -0.7601  -0.7546  -0.7470  -0.7231  -0.7181  -0.7131  -0.7019
 -0.6965  -0.6935  -0.6830  -0.6647  -0.6524  -0.6273  -0.6195  -0.6010
 -0.5947  -0.5933  -0.5823  -0.5809  -0.5715  -0.5711  -0.5680  -0.5615
 -0.5553  -0.5520  -0.5472  -0.5367  -0.5093  -0.5068  -0.5013  -0.4842
 -0.4832  -0.4780  -0.4717  -0.4707  -0.4677  -0.4662  -0.4585  -0.4579
 -0.4570  -0.4547  -0.4511  -0.4489  -0.4448  -0.4423  -0.4406  -0.4377
 -0.4340  -0.4321  -0.4263  -0.4220  -0.4186  -0.4159  -0.4130  -0.4101
 -0.4085  -0.4067  -0.4058  -0.4025  -0.4019  -0.3987  -0.3965  -0.3934
 -0.3903  -0.3899  -0.3877  -0.3859  -0.3824  -0.3795  -0.3780  -0.3738
 -0.3724  -0.3700  -0.3671  -0.3657  -0.3647  -0.3631  -0.3608  -0.3580
 -0.3571  -0.3531  -0.3495  -0.3469  -0.3444  -0.3395  -0.3387  -0.3359
 -0.3341  -0.3322  -0.3304  -0.3299  -0.3252  -0.3206  -0.3160  -0.3143
 -0.3123  -0.3103  -0.3091  -0.3061  -0.3039  -0.2929  -0.2874  -0.2704
 -0.2639  -0.2540  -0.2517  -0.2488  -0.2467  -0.2459  -0.2429  -0.2412
 -0.2389  -0.2371  -0.2332  -0.2304  -0.2285  -0.2154  -0.2141  -0.2100
 -0.2082  -0.2059  -0.2046  -0.1924  -0.1621  -0.1605

 Beta MOs
 -- Occupied --
******** -30.0148 -25.8831 -25.8822 -25.8811 -19.0944 -19.0915 -19.0897
-19.0876 -19.0856 -19.0855 -19.0852 -19.0810 -19.0809 -19.0741 -19.0612
-14.3391 -14.3336 -14.3326 -14.3236 -14.2999 -14.2953 -10.2735 -10.2702
-10.2675 -10.2628 -10.2555 -10.2137 -10.2102 -10.2084 -10.2075 -10.2071
-10.2052 -10.2033 -10.2027 -10.1999 -10.1948 -10.1940 -10.1939 -10.1861
-10.1755 -10.1738 -10.1698 -10.1678 -10.1674 -10.1669 -10.1659 -10.1658
-10.1657 -10.1650 -10.1630 -10.1628 -10.1620 -10.1595 -10.1584 -10.1568
 -3.3731  -2.1359  -2.1354  -2.1336  -1.0207  -1.0174  -1.0149  -1.0133
 -1.0085  -0.9851  -0.9814  -0.9431  -0.9420  -0.9390  -0.9234  -0.9091
 -0.9064  -0.9033  -0.8938  -0.8868  -0.8866  -0.8167  -0.8144  -0.7782
 -0.7741  -0.7596  -0.7543  -0.7458  -0.7227  -0.7175  -0.7124  -0.7010
 -0.6954  -0.6925  -0.6827  -0.6644  -0.6522  -0.6270  -0.6194  -0.6003
 -0.5941  -0.5923  -0.5816  -0.5802  -0.5711  -0.5708  -0.5674  -0.5614
 -0.5546  -0.5511  -0.5457  -0.5366  -0.5060  -0.5047  -0.4990  -0.4833
 -0.4816  -0.4732  -0.4698  -0.4683  -0.4656  -0.4632  -0.4571  -0.4546
 -0.4537  -0.4507  -0.4480  -0.4460  -0.4415  -0.4399  -0.4355  -0.4352
 -0.4314  -0.4275  -0.4222  -0.4178  -0.4163  -0.4132  -0.4084  -0.4049
 -0.4042  -0.4022  -0.4002  -0.3991  -0.3949  -0.3938  -0.3921  -0.3908
 -0.3866  -0.3851  -0.3843  -0.3819  -0.3783  -0.3752  -0.3717  -0.3673
 -0.3662  -0.3621  -0.3609  -0.3582  -0.3544  -0.3532  -0.3499  -0.3456
 -0.3431  -0.3400  -0.3399  -0.3343  -0.3341  -0.3320  -0.3301  -0.3276
 -0.3232  -0.3161  -0.3142  -0.3122  -0.3112  -0.3099  -0.3068  -0.3035
 -0.2930  -0.2869  -0.2745  -0.2674  -0.2604  -0.2570  -0.2518  -0.2504
 -0.2480  -0.2459  -0.2445  -0.2404  -0.2387  -0.2367  -0.2359  -0.2330
 -0.2300  -0.2172  -0.2149  -0.2106  -0.2090  -0.2066  -0.1994  -0.1658
 -0.1598

          Ground-State Mulliken Net Atomic Charges

     Atom                 Charge (a.u.)    Spin (a.u.)
  --------------------------------------------------------
      1 C                     0.135332      -0.000120
      2 C                    -0.081907       0.017504
      3 C                    -0.040034       0.003854
      4 C                     0.001684       0.002929
      5 C                    -0.037453       0.010227
      6 C                     0.123917       0.002861
      7 H                    -0.054278      -0.000258
      8 O                    -0.449212       0.110192
      9 C                     0.145768       0.000326
     10 O                    -0.367439       0.001583
     11 N                    -0.149886       0.000235
     12 H                     0.111737      -0.000014
     13 C                     0.094341      -0.000021
     14 H                     0.012780       0.000026
     15 H                     0.017298      -0.000000
     16 C                    -0.034202       0.000013
     17 H                     0.006805       0.000005
     18 H                     0.016172      -0.000002
     19 C                     0.070696       0.000008
     20 H                     0.012070      -0.000017
     21 H                     0.000037      -0.000001
     22 N                    -0.232420       0.000046
     23 H                     0.084420      -0.000005
     24 C                    -0.036600       0.000064
     25 H                     0.038136      -0.000012
     26 H                    -0.012215      -0.000006
     27 C                     0.047961       0.000149
     28 H                    -0.006589       0.000008
     29 H                     0.041817      -0.000021
     30 C                     0.005098       0.000026
     31 H                    -0.011970       0.000001
     32 H                    -0.022474       0.000008
     33 C                     0.090066       0.000019
     34 H                     0.020405      -0.000108
     35 H                    -0.002140      -0.000016
     36 N                    -0.134542      -0.000180
     37 H                     0.143985       0.002233
     38 C                     0.079955      -0.000435
     39 O                    -0.382103       0.000119
     40 C                     0.174188       0.003287
     41 H                     0.017733       0.000320
     42 H                    -0.013828       0.001510
     43 C                     0.132585       0.004251
     44 H                     0.016629       0.000082
     45 H                    -0.003477       0.000587
     46 C                     0.113892      -0.000027
     47 O                    -0.377992       0.000073
     48 N                    -0.130158       0.000169
     49 C                     0.108776      -0.000042
     50 H                     0.130739       0.000231
     51 C                    -0.034264       0.000036
     52 H                     0.014198      -0.000034
     53 H                     0.006312       0.000023
     54 C                    -0.024097       0.000004
     55 H                    -0.002034       0.000008
     56 H                     0.021157       0.000005
     57 C                     0.085705      -0.000003
     58 H                    -0.008128      -0.000000
     59 H                     0.010335       0.000007
     60 H                     0.001626       0.000001
     61 H                    -0.004496       0.000001
     62 C                     0.161420       0.000176
     63 C                     0.018718       0.001077
     64 O                    -0.371481       0.001247
     65 C                    -0.020909       0.005461
     66 C                    -0.036325       0.010321
     67 C                    -0.090762       0.011177
     68 C                     0.127535       0.002175
     69 C                     0.106588       0.004438
     70 H                    -0.055834      -0.000008
     71 O                    -0.439180       0.109078
     72 C                    -0.112440       0.004134
     73 O                    -0.511013       0.162196
     74 C                     0.201569       0.004063
     75 O                    -0.376811       0.080614
     76 O                    -0.401803       0.013342
     77 H                    -0.047911      -0.000055
     78 O                    -0.460142       0.123118
     79 H                    -0.052002      -0.000072
     80 O                    -0.449433       0.117867
     81 Fe                    0.444177       4.186953
     82 N                    -0.256262       0.000011
     83 H                     0.081774       0.000021
     84 N                    -0.132350       0.000415
     85 H                     0.109725      -0.000005
     86 C                     0.090930      -0.000019
     87 H                     0.019809      -0.000001
     88 H                     0.018700       0.000008
     89 C                     0.003904       0.000047
     90 H                     0.002233       0.000014
     91 H                     0.006895      -0.000001
     92 C                     0.054022       0.000000
     93 H                     0.010140       0.000003
     94 H                     0.008279      -0.000030
     95 H                    -0.066987       0.000313
     96 H                    -0.065194       0.000208
  --------------------------------------------------------
  Sum of atomic charges =    -3.000000

                    Cartesian Multipole Moments
 -----------------------------------------------------------------
    Charge (ESU x 10^10)
               -14.4096
    Dipole Moment (Debye)
         X      -7.4789      Y      -4.0118      Z      14.1573
       Tot      16.5063
    Quadrupole Moments (Debye-Ang)
        XX    -526.5430     XY       7.6809     YY    -439.0988
        XZ      18.6146     YZ     -25.3942     ZZ    -353.5229

 Final energy is -3742.945265635642
	**  OPTIMIZATION CONVERGED  **

             Standard Nuclear Orientation (Angstroms)
    I     Atom           X                Y                Z
 ----------------------------------------------------------------
    1      C       3.0648119917    -1.7466327823    -0.8828284034
    2      C       4.2853226351    -2.3038316867    -0.4960795002
    3      C       5.4728687560    -2.0482903036    -1.2292247616
    4      C       5.4014101130    -1.2942121626    -2.4083939438
    5      C       4.1938117461    -0.7058732950    -2.8042613513
    6      C       3.0344522283    -0.8587795129    -2.0230893827
    7      H       4.2999545403    -2.9280208451     0.4021377804
    8      O       1.9021853063    -0.2273428696    -2.2434483102
    9      C       6.8273970096    -2.3036105260    -0.6789064785
   10      O       7.8552424439    -2.3103988363    -1.3763917513
   11      N       6.8872034436    -2.4384756496     0.6893557426
   12      H       6.0218616547    -2.2206700636     1.1730546423
   13      C       8.0881796080    -2.0800313181     1.4364597756
   14      H       8.2443207062    -2.8025078613     2.2542567461
   15      H       8.9372968935    -2.1657471436     0.7440695699
   16      C       7.9761422777    -0.6573748331     2.0049826992
   17      H       8.8385754312    -0.4740680873     2.6679694585
   18      H       7.0791022778    -0.6101661050     2.6476063571
   19      C       7.8833553047     0.4594521077     0.9276777448
   20      H       7.8063029045     0.0052288197    -0.0727892500
   21      H       8.8230996549     1.0361538706     0.9299991478
   22      N       6.7756432887     1.4117614532     1.0573487187
   23      H       6.7781063008     1.7923820445     2.0077291564
   24      C       4.3441271836     1.8779675257     0.9609361791
   25      H       3.3682280668     1.3742966015     0.8731417823
   26      H       4.3939281759     2.2678552063     1.9946111608
   27      C       5.4538685355     0.8384384401     0.7896433917
   28      H       5.2213238076    -0.0336263796     1.4375556154
   29      H       5.4581915285     0.4481144709    -0.2413354994
   30      C       4.4117182344     3.0467669540    -0.0328847443
   31      H       3.9797150336     3.9544758963     0.4133220625
   32      H       5.4693698624     3.2695064381    -0.2523668717
   33      C       3.6767960347     2.7946270155    -1.3590884396
   34      H       4.0173373614     1.8556204633    -1.8160997934
   35      H       3.9114288349     3.6153722876    -2.0585585570
   36      N       2.2282213339     2.6921543292    -1.2084851410
   37      H       1.7624993925     1.8062150972    -1.4195160777
   38      C       1.4693734506     3.7455261534    -0.8331079010
   39      O       1.9448859053     4.8818552302    -0.6687074680
   40      C      -0.0164365017     3.4913206448    -0.6074696118
   41      H      -0.5610515647     3.7141545775    -1.5383068050
   42      H      -0.3328964592     4.2350355024     0.1355109244
   43      C      -1.8528353474     2.0012398355     0.3863346742
   44      H      -2.0084219733     0.9819657966     0.7676941683
   45      H      -1.9656906261     2.7175646426     1.2127535409
   46      C      -2.8780772329     2.3369773017    -0.6762707073
   47      O      -3.1041567243     3.5075617939    -1.0219648553
   48      N      -3.5158071223     1.2750923329    -1.2279396259
   49      C      -4.4806141700     1.3905542419    -2.3113432140
   50      H      -3.2520699029     0.3426553965    -0.9192700202
   51      C      -5.9164735647     1.0914931969    -1.8699219946
   52      H      -4.1863971331     0.6944890313    -3.1129209829
   53      H      -4.4021339972     2.4169585969    -2.6974490716
   54      C      -6.4585676618     2.0766652819    -0.8337540840
   55      H      -6.5619326055     1.1034104172    -2.7672231188
   56      H      -5.9581853480     0.0651160306    -1.4741689486
   57      C      -7.8344065307     1.6803196582    -0.2708740496
   58      H      -6.5377938030     3.0827194658    -1.2839570125
   59      H      -5.7352479839     2.1696727101    -0.0064363619
   60      H      -8.1908008035     2.4886091645     0.3937863588
   61      H      -8.5581761267     1.6145023944    -1.1028084474
   62      C      -5.8413977609    -2.2979734111    -0.0895154242
   63      C      -4.2473304913    -2.3637680880    -1.9826586374
   64      O      -6.8305610619    -2.2058365252    -0.8481125531
   65      C      -4.4535544567    -2.2195315808    -0.6037715055
   66      C      -2.9769368903    -2.1869658457    -2.5441962266
   67      C      -3.3472787791    -1.8942490275     0.2251763849
   68      C      -1.8742884647    -1.8387739285    -1.7395435319
   69      C      -2.0703217161    -1.7082858066    -0.3111091988
   70      H      -3.4681736222    -1.7213973654     1.2979308857
   71      O      -0.6677779126    -1.5868451553    -2.1927119955
   72      C      -0.3910869864     2.0611843774    -0.1596477432
   73      O      -0.2413489108     1.1713073003    -1.2187816800
   74      C       0.5183142475     1.6488744457     1.0367969734
   75      O       1.0605933477     0.4851834094     0.9284097448
   76      O       0.6651326364     2.4201095450     2.0005366215
   77      H       4.1481864632    -0.0641077185    -3.6889406203
   78      O       1.9160958052    -1.9323969470    -0.2490935683
   79      H      -2.8275082488    -2.2851337704    -3.6233879559
   80      O      -1.0087574214    -1.3572206213     0.3980896616
   81      Fe      0.4797399989    -0.6059303057    -0.7844393903
   82      N      -7.9117775681     0.4206386728     0.4762472217
   83      H      -7.7023363907    -0.3595674994    -0.1526063064
   84      N      -6.0046315249    -2.4542421190     1.2556363026
   85      H      -5.1735414378    -2.4971702258     1.8334796877
   86      C      -7.2698579270    -2.1944462955     1.9249614357
   87      H      -8.0574619881    -2.3078886966     1.1691501705
   88      H      -7.4338020630    -2.9626170744     2.6970088773
   89      C      -7.3313039737    -0.7987804148     2.5668428681
   90      H      -8.3470034790    -0.6588616093     2.9760887004
   91      H      -6.6279199945    -0.7623173320     3.4173382877
   92      C      -6.9976179115     0.3554434090     1.6182019097
   93      H      -7.0885317999     1.3029035454     2.1774578198
   94      H      -5.9317425199     0.2778774780     1.3188723977
   95      H      -5.1055462411    -2.5944092981    -2.6151172497
   96      H       6.3213389682    -1.1043558789    -2.9637034238
 ----------------------------------------------------------------

 Total job time:  12024.47s(wall), 197181.69s(cpu)
        *  Thank you very much for using Q-Chem.  Have a nice day.  *
