 Q-Chem 6.0, Q-Chem, Inc., Pleasanton, CA (2022)
 Q-Chem 6.0.2 for Intel X86 EM64T Linux

User input:
--------------------------------------------------------------
$molecule
-3 6
C    2.6146177   -2.0842359   -0.9736689
C    3.4701671   -3.0685982   -0.5740893
C    4.7915540   -2.9736734   -0.8604412
C    5.3292574   -1.8625520   -1.5081104
C    4.4430590   -0.8915220   -2.1014527
C    3.0371605   -1.0260038   -1.7775457
H    3.1414215   -3.8727122    0.0533496
O    2.0309866   -0.1607443   -2.0789938
C    6.7885451   -1.7464762   -1.1571419
O    7.6691076   -1.3831193   -1.9252758
N    7.0170524   -1.9494188    0.1991783
H    6.1964061   -2.0816951    0.8108426
C    8.2025691   -1.8512397    1.0135002
H    8.2223490   -2.7412653    1.6944772
H    9.1355372   -1.8330792    0.4248752
C    8.0313532   -0.5882278    1.8735141
H    8.8543555   -0.4806294    2.6136661
H    7.1048748   -0.6908706    2.4850469
C    7.9509778    0.6528017    0.9456480
H    7.9462570    0.3757028   -0.1250113
H    8.8931798    1.2241388    1.0605179
N    6.7917231    1.5236844    1.2008081
H    6.7818916    1.8065604    2.2063487
C    4.3642895    1.9608810    0.9933153
H    3.3752150    1.4764754    0.9199303
H    4.4599219    2.3430491    2.0305479
C    5.4921576    0.9288186    0.8180307
H    5.2625717    0.0639155    1.4779186
H    5.5095267    0.5767321   -0.2279358
C    4.4360178    3.1483279    0.0036697
H    3.9322461    4.0197560    0.4613501
H    5.5005910    3.4206973   -0.1503005
C    3.7517570    2.8938531   -1.3582947
H    4.1609857    1.9618036   -1.7923536
H    3.9682481    3.7177558   -2.0680330
N    2.3093895    2.7696884   -1.2237608
H    1.8902242    1.8833301   -1.4417586
C    1.4583656    3.7580727   -0.8539561
O    1.8756101    4.8909372   -0.6634309
C   -0.0246166    3.4772934   -0.6445291
H   -0.5973204    3.8263237   -1.5308207
H   -0.3219716    4.1489890    0.1911783
C   -1.8696020    2.0425511    0.3781396
H   -2.0954576    1.0413054    0.7934501
H   -1.9776408    2.7438378    1.2381144
C   -2.8881964    2.3612604   -0.6960757
O   -3.0025491    3.5033617   -1.1157481
N   -3.6273733    1.3528275   -1.2235248
C   -4.5516564    1.4891470   -2.3271601
H   -3.5149287    0.4152361   -0.8418940
C   -5.9530350    1.0890918   -1.8654720
H   -4.2198349    0.8032962   -3.1388601
H   -4.5619086    2.5203923   -2.7379998
C   -6.4658555    2.0723096   -0.8020019
H   -6.6387200    1.0941245   -2.7392317
H   -5.9065367    0.0579892   -1.4617989
C   -7.8632875    1.7215602   -0.2552047
H   -6.5205850    3.0784299   -1.2718711
H   -5.7494279    2.1468953    0.0416050
H   -8.1871145    2.5396587    0.4224259
H   -8.5824339    1.6903964   -1.1021973
C   -5.6477403   -2.4065275   -0.0324446
C   -4.0498417   -2.4058268   -1.9888431
O   -6.5801668   -2.5326202   -0.8159997
C   -4.2579246   -2.2476034   -0.5966083
C   -2.7922879   -2.1688710   -2.5764325
C   -3.1582272   -1.8318243    0.1930234
C   -1.7293842   -1.7206620   -1.7897541
C   -1.9282026   -1.5386057   -0.4224616
H   -3.2519430   -1.6482424    1.2531847
O   -0.5000372   -1.4057157   -2.2880333
C   -0.4294717    2.0175840   -0.2169392
O   -0.4300144    1.1519463   -1.3506786
C    0.5658108    1.4927284    0.8131455
O    1.2528697    0.3589873    0.5255878
O    0.7713725    2.0944397    1.8563797
H    4.8191472   -0.0121500   -2.6269563
O    1.3522290   -2.0982258   -0.5331790
H   -2.6668305   -2.2890884   -3.6424543
O   -0.9053043   -0.9995101    0.2494199
Fe    0.4820630   -0.5136605   -0.9361086
N   -7.9357337    0.4432481    0.4762065
H   -7.7572419   -0.3469972   -0.1803172
N   -5.9062335   -2.3152746    1.3082823
H   -5.1371092   -2.2544253    1.9851409
C   -7.2488684   -2.1857435    1.8579002
H   -8.0368688   -2.2581565    1.0779281
H   -7.4423978   -2.9976463    2.5931793
C   -7.3667481   -0.8173304    2.5563508
H   -8.3910505   -0.6910162    2.9684325
H   -6.6526573   -0.7965045    3.4100880
C   -7.0272261    0.3726768    1.6329269
H   -7.1071310    1.3035694    2.2361165
H   -5.9736634    0.2762238    1.2887069
H   -4.8717644   -2.6937328   -2.6322710
H    5.4431102   -3.7314118   -0.4436871
$end

$rem
BASIS  =  gen
DFT_D  =  D3_BJ
GUI  =  2
JOB_TYPE  =  Optimization
METHOD  =  B3LYP
SCF_CONVERGENCE  =  8
SOLVENT_METHOD  =  PCM
$end

$pcm
THEORY  CPCM
$end

$solvent
DIELECTRIC  78.39
$end

$van_der_waals
26   2.44
$end

!----------------------------------------------------------------------
! Basis Set Exchange
! Basis set: cc-pVDZ
!----------------------------------------------------------------------

$rem
BASIS GEN
PURECART 11
$end

$basis
H     0
S   4   1.00
1.301000D+01           1.968500D-02
1.962000D+00           1.379770D-01
4.446000D-01           4.781480D-01
1.220000D-01           5.012400D-01
S   1   1.00
1.220000D-01           1.000000D+00
P   1   1.00
7.270000D-01           1.0000000
****
C     0
S   9   1.00
6.665000D+03           6.920000D-04
1.000000D+03           5.329000D-03
2.280000D+02           2.707700D-02
6.471000D+01           1.017180D-01
2.106000D+01           2.747400D-01
7.495000D+00           4.485640D-01
2.797000D+00           2.850740D-01
5.215000D-01           1.520400D-02
1.596000D-01          -3.191000D-03
S   9   1.00
6.665000D+03          -1.460000D-04
1.000000D+03          -1.154000D-03
2.280000D+02          -5.725000D-03
6.471000D+01          -2.331200D-02
2.106000D+01          -6.395500D-02
7.495000D+00          -1.499810D-01
2.797000D+00          -1.272620D-01
5.215000D-01           5.445290D-01
1.596000D-01           5.804960D-01
S   1   1.00
1.596000D-01           1.000000D+00
P   4   1.00
9.439000D+00           3.810900D-02
2.002000D+00           2.094800D-01
5.456000D-01           5.085570D-01
1.517000D-01           4.688420D-01
P   1   1.00
1.517000D-01           1.000000D+00
D   1   1.00
5.500000D-01           1.0000000
****
N     0
S   9   1.00
9.046000D+03           7.000000D-04
1.357000D+03           5.389000D-03
3.093000D+02           2.740600D-02
8.773000D+01           1.032070D-01
2.856000D+01           2.787230D-01
1.021000D+01           4.485400D-01
3.838000D+00           2.782380D-01
7.466000D-01           1.544000D-02
2.248000D-01          -2.864000D-03
S   9   1.00
9.046000D+03          -1.530000D-04
1.357000D+03          -1.208000D-03
3.093000D+02          -5.992000D-03
8.773000D+01          -2.454400D-02
2.856000D+01          -6.745900D-02
1.021000D+01          -1.580780D-01
3.838000D+00          -1.218310D-01
7.466000D-01           5.490030D-01
2.248000D-01           5.788150D-01
S   1   1.00
2.248000D-01           1.000000D+00
P   4   1.00
1.355000D+01           3.991900D-02
2.917000D+00           2.171690D-01
7.973000D-01           5.103190D-01
2.185000D-01           4.622140D-01
P   1   1.00
2.185000D-01           1.000000D+00
D   1   1.00
8.170000D-01           1.0000000
****
O     0
S   9   1.00
1.172000D+04           7.100000D-04
1.759000D+03           5.470000D-03
4.008000D+02           2.783700D-02
1.137000D+02           1.048000D-01
3.703000D+01           2.830620D-01
1.327000D+01           4.487190D-01
5.025000D+00           2.709520D-01
1.013000D+00           1.545800D-02
3.023000D-01          -2.585000D-03
S   9   1.00
1.172000D+04          -1.600000D-04
1.759000D+03          -1.263000D-03
4.008000D+02          -6.267000D-03
1.137000D+02          -2.571600D-02
3.703000D+01          -7.092400D-02
1.327000D+01          -1.654110D-01
5.025000D+00          -1.169550D-01
1.013000D+00           5.573680D-01
3.023000D-01           5.727590D-01
S   1   1.00
3.023000D-01           1.000000D+00
P   4   1.00
1.770000D+01           4.301800D-02
3.854000D+00           2.289130D-01
1.046000D+00           5.087280D-01
2.753000D-01           4.605310D-01
P   1   1.00
2.753000D-01           1.000000D+00
D   1   1.00
1.185000D+00           1.0000000
****
Fe     0
S   20   1.00
4.316265D+06           8.048803D-06
6.463424D+05           6.258306D-05
1.470897D+05           3.290239D-04
4.166152D+04           1.387355D-03
1.359077D+04           5.023256D-03
4.905750D+03           1.610140D-02
1.912746D+03           4.590034D-02
7.926043D+02           1.136154D-01
3.448065D+02           2.283869D-01
1.558999D+02           3.221159D-01
7.223091D+01           2.383661D-01
3.272506D+01           7.404667D-02
1.566762D+01           9.214197D-02
7.503483D+00           9.339790D-02
3.312223D+00           1.573965D-02
1.558471D+00          -4.186682D-04
6.839140D-01           5.376318D-05
1.467570D-01          -3.816654D-05
7.058300D-02           4.319603D-05
3.144900D-02          -3.401019D-06
S   20   1.00
4.316265D+06          -4.155954D-06
6.463424D+05          -3.231401D-05
1.470897D+05          -1.699525D-04
4.166152D+04          -7.171369D-04
1.359077D+04          -2.603625D-03
4.905750D+03          -8.399109D-03
1.912746D+03          -2.434109D-02
7.926043D+02          -6.251948D-02
3.448065D+02          -1.365929D-01
1.558999D+02          -2.312707D-01
7.223091D+01          -2.383734D-01
3.272506D+01           3.123837D-02
1.566762D+01           5.086818D-01
7.503483D+00           4.987695D-01
3.312223D+00           9.033552D-02
1.558471D+00          -6.005337D-03
6.839140D-01           2.312454D-04
1.467570D-01          -5.643680D-04
7.058300D-02           4.992260D-04
3.144900D-02          -1.015293D-04
S   20   1.00
4.316265D+06           9.532178D-07
6.463424D+05           7.414605D-06
1.470897D+05           3.898393D-05
4.166152D+04           1.647152D-04
1.359077D+04           5.985980D-04
4.905750D+03           1.942390D-03
1.912746D+03           5.687237D-03
7.926043D+02           1.501329D-02
3.448065D+02           3.452455D-02
1.558999D+02           6.495820D-02
7.223091D+01           7.716194D-02
3.272506D+01          -1.873411D-02

   19   -3742.8149780705      7.33e-09  Convergence criterion met
 Total energy in the final basis set =    -3742.8149780705
   15   -3742.8892954681      9.18e-09  Convergence criterion met
 Total energy in the final basis set =    -3742.8892954681
   15   -3742.9192665138      9.82e-09  Convergence criterion met
 Total energy in the final basis set =    -3742.9192665138
   16   -3742.9287714774      5.18e-09  Convergence criterion met
 Total energy in the final basis set =    -3742.9287714774
   16   -3742.9363963580      6.96e-09  Convergence criterion met
 Total energy in the final basis set =    -3742.9363963580
   16   -3742.9387684105      6.39e-09  Convergence criterion met
 Total energy in the final basis set =    -3742.9387684105
   16   -3742.9412057658      5.53e-09  Convergence criterion met
 Total energy in the final basis set =    -3742.9412057658
   16   -3742.9424500848      5.62e-09  Convergence criterion met
   17   -3742.9469529694      3.54e-09  Convergence criterion met
 Total energy in the final basis set =    -3742.9469529694
   17   -3742.9469561889      3.66e-09  Convergence criterion met
 Total energy in the final basis set =    -3742.9469561889
   17   -3742.9469585543      3.71e-09  Convergence criterion met
 Total energy in the final basis set =    -3742.9469585543
   16   -3742.9469604261      8.32e-09  Convergence criterion met
 Total energy in the final basis set =    -3742.9469604261
   16   -3742.9469619686      8.49e-09  Convergence criterion met
 Total energy in the final basis set =    -3742.9469619686
   17   -3742.9469631169      3.33e-09  Convergence criterion met
 Total energy in the final basis set =    -3742.9469631169
   17   -3742.9469638474      3.17e-09  Convergence criterion met
 Total energy in the final basis set =    -3742.9469638474

                    Orbital Energies (a.u.)
 --------------------------------------------------------------

 Alpha MOs
 -- Occupied --
******** -30.1073 -25.9613 -25.9585 -25.9571 -19.0945 -19.0921 -19.0916
-19.0894 -19.0890 -19.0861 -19.0858 -19.0853 -19.0837 -19.0748 -19.0662
-14.3390 -14.3354 -14.3328 -14.3248 -14.3001 -14.2955 -10.2734 -10.2706
-10.2667 -10.2632 -10.2565 -10.2140 -10.2102 -10.2082 -10.2082 -10.2057
-10.2052 -10.2028 -10.2012 -10.2006 -10.1946 -10.1939 -10.1939 -10.1877
-10.1756 -10.1736 -10.1697 -10.1675 -10.1672 -10.1671 -10.1670 -10.1668
-10.1663 -10.1659 -10.1651 -10.1635 -10.1629 -10.1596 -10.1576 -10.1556
 -3.5895  -2.3675  -2.3622  -2.3593  -1.0238  -1.0175  -1.0151  -1.0128
 -1.0096  -0.9903  -0.9859  -0.9504  -0.9484  -0.9457  -0.9299  -0.9091
 -0.9069  -0.9026  -0.8944  -0.8873  -0.8870  -0.8175  -0.8151  -0.7782
 -0.7766  -0.7603  -0.7550  -0.7479  -0.7229  -0.7177  -0.7147  -0.7027
 -0.6974  -0.6923  -0.6821  -0.6645  -0.6529  -0.6275  -0.6200  -0.6010
 -0.5956  -0.5936  -0.5809  -0.5777  -0.5732  -0.5717  -0.5711  -0.5605
 -0.5552  -0.5528  -0.5520  -0.5381  -0.5101  -0.5068  -0.5007  -0.4843
 -0.4836  -0.4794  -0.4722  -0.4684  -0.4676  -0.4651  -0.4620  -0.4584
 -0.4572  -0.4543  -0.4508  -0.4488  -0.4447  -0.4429  -0.4400  -0.4383
 -0.4334  -0.4319  -0.4277  -0.4206  -0.4183  -0.4152  -0.4131  -0.4116
 -0.4086  -0.4067  -0.4053  -0.4042  -0.4004  -0.3994  -0.3968  -0.3915
 -0.3899  -0.3878  -0.3871  -0.3845  -0.3824  -0.3794  -0.3770  -0.3753
 -0.3737  -0.3709  -0.3680  -0.3664  -0.3651  -0.3604  -0.3592  -0.3572
 -0.3563  -0.3533  -0.3517  -0.3479  -0.3445  -0.3406  -0.3375  -0.3367
 -0.3343  -0.3332  -0.3319  -0.3300  -0.3253  -0.3216  -0.3173  -0.3152
 -0.3114  -0.3096  -0.3095  -0.3056  -0.3050  -0.2929  -0.2915  -0.2714
 -0.2641  -0.2530  -0.2504  -0.2488  -0.2479  -0.2459  -0.2428  -0.2416
 -0.2383  -0.2363  -0.2349  -0.2312  -0.2280  -0.2139  -0.2106  -0.2098
 -0.2085  -0.2067  -0.2048  -0.1911  -0.1617  -0.1599

 Beta MOs
 -- Occupied --
******** -30.0140 -25.8824 -25.8811 -25.8802 -19.0945 -19.0920 -19.0894
-19.0888 -19.0853 -19.0852 -19.0823 -19.0816 -19.0798 -19.0744 -19.0611
-14.3390 -14.3354 -14.3328 -14.3248 -14.3001 -14.2955 -10.2734 -10.2706
-10.2667 -10.2632 -10.2565 -10.2140 -10.2102 -10.2082 -10.2082 -10.2058
-10.2052 -10.2028 -10.2012 -10.2006 -10.1946 -10.1939 -10.1939 -10.1877
-10.1756 -10.1736 -10.1696 -10.1675 -10.1672 -10.1670 -10.1670 -10.1668
-10.1662 -10.1658 -10.1651 -10.1635 -10.1627 -10.1594 -10.1574 -10.1554
 -3.3722  -2.1354  -2.1341  -2.1328  -1.0209  -1.0175  -1.0151  -1.0127
 -1.0095  -0.9837  -0.9791  -0.9427  -0.9403  -0.9388  -0.9237  -0.9091
 -0.9069  -0.9025  -0.8941  -0.8873  -0.8870  -0.8166  -0.8142  -0.7781
 -0.7765  -0.7596  -0.7547  -0.7467  -0.7225  -0.7171  -0.7139  -0.7019
 -0.6964  -0.6913  -0.6817  -0.6643  -0.6526  -0.6272  -0.6199  -0.6003
 -0.5951  -0.5926  -0.5802  -0.5769  -0.5723  -0.5714  -0.5708  -0.5603
 -0.5545  -0.5517  -0.5510  -0.5380  -0.5071  -0.5044  -0.4994  -0.4834
 -0.4820  -0.4741  -0.4692  -0.4677  -0.4656  -0.4611  -0.4601  -0.4563
 -0.4534  -0.4504  -0.4471  -0.4439  -0.4424  -0.4404  -0.4381  -0.4341
 -0.4316  -0.4272  -0.4213  -0.4176  -0.4155  -0.4120  -0.4099  -0.4060
 -0.4051  -0.4032  -0.4006  -0.3980  -0.3970  -0.3948  -0.3917  -0.3880
 -0.3855  -0.3832  -0.3831  -0.3816  -0.3785  -0.3755  -0.3725  -0.3666
 -0.3647  -0.3616  -0.3602  -0.3591  -0.3560  -0.3556  -0.3487  -0.3456
 -0.3419  -0.3409  -0.3396  -0.3368  -0.3343  -0.3331  -0.3314  -0.3278
 -0.3233  -0.3173  -0.3154  -0.3115  -0.3105  -0.3096  -0.3068  -0.3043
 -0.2935  -0.2909  -0.2754  -0.2682  -0.2607  -0.2556  -0.2521  -0.2486
 -0.2471  -0.2458  -0.2451  -0.2405  -0.2378  -0.2367  -0.2358  -0.2345
 -0.2310  -0.2174  -0.2109  -0.2104  -0.2093  -0.2073  -0.2002  -0.1649
 -0.1594

          Ground-State Mulliken Net Atomic Charges

     Atom                 Charge (a.u.)    Spin (a.u.)
  --------------------------------------------------------
      1 C                     0.129927       0.001291
      2 C                    -0.045479       0.012209
      3 C                    -0.031916       0.001478
      4 C                    -0.026611       0.005783
      5 C                    -0.043963       0.013954
      6 C                     0.130246       0.003521
      7 H                    -0.055279      -0.000123
      8 O                    -0.474884       0.125023
      9 C                     0.141822       0.000233
     10 O                    -0.368983       0.000585
     11 N                    -0.139543       0.000805
     12 H                     0.112246       0.000071
     13 C                     0.097149      -0.000014
     14 H                     0.014370       0.000048
     15 H                     0.019285       0.000013
     16 C                    -0.024897       0.000060
     17 H                     0.005585       0.000004
     18 H                     0.009416       0.000001
     19 C                     0.072077       0.000000
     20 H                     0.009956       0.000011
     21 H                    -0.001158      -0.000000
     22 N                    -0.228661       0.000028
     23 H                     0.083554       0.000002
     24 C                    -0.006870       0.000009
     25 H                     0.008765      -0.000007
     26 H                    -0.006407      -0.000003
     27 C                     0.052749       0.000010
     28 H                    -0.009951      -0.000012
     29 H                     0.034122      -0.000007
     30 C                     0.012810      -0.000002
     31 H                    -0.013441       0.000007
     32 H                    -0.022021       0.000008
     33 C                     0.092743       0.000055
     34 H                     0.014239       0.000027
     35 H                    -0.002182      -0.000021
     36 N                    -0.139396      -0.000029
     37 H                     0.147947       0.002832
     38 C                     0.090726      -0.000482
     39 O                    -0.386709       0.000117
     40 C                     0.167285       0.003216
     41 H                     0.018990       0.000309
     42 H                    -0.009274       0.001549
     43 C                     0.138775       0.004170
     44 H                     0.018264       0.000203
     45 H                    -0.007412       0.000600
     46 C                     0.107357      -0.000104
     47 O                    -0.379697       0.000144
     48 N                    -0.126703       0.000167
     49 C                     0.108788      -0.000049
     50 H                     0.131057       0.000237
     51 C                    -0.034068       0.000037
     52 H                     0.013627      -0.000034
     53 H                     0.005969       0.000029
     54 C                    -0.023086       0.000003
     55 H                    -0.002316       0.000009
     56 H                     0.020279      -0.000004
     57 C                     0.085509      -0.000002
     58 H                    -0.009855      -0.000001
     59 H                     0.011501       0.000006
     60 H                     0.001440       0.000001
     61 H                    -0.004669       0.000000
     62 C                     0.158087       0.000172
     63 C                     0.018033       0.000360
     64 O                    -0.370551       0.001284
     65 C                    -0.018426       0.005966
     66 C                    -0.034175       0.010583
     67 C                    -0.087098       0.010097
     68 C                     0.124651       0.001519
     69 C                     0.104266       0.005443
     70 H                    -0.055898       0.000063
     71 O                    -0.442386       0.108514
     72 C                    -0.111673       0.003813
     73 O                    -0.511226       0.161024
     74 C                     0.186636       0.003900
     75 O                    -0.378780       0.079515
     76 O                    -0.395954       0.013302
     77 H                    -0.062908      -0.000207
     78 O                    -0.448860       0.112280
     79 H                    -0.052294      -0.000070
     80 O                    -0.452350       0.113541
     81 Fe                    0.442345       4.189819
     82 N                    -0.256103       0.000010
     83 H                     0.082191       0.000021
     84 N                    -0.132181       0.000451
     85 H                     0.109370      -0.000009
     86 C                     0.090783      -0.000019
     87 H                     0.019919      -0.000001
     88 H                     0.018341       0.000009
     89 C                     0.003418       0.000051
     90 H                     0.002252       0.000015
     91 H                     0.007168      -0.000002
     92 C                     0.053051      -0.000001
     93 H                     0.010178       0.000003
     94 H                     0.009921      -0.000031
     95 H                    -0.067076       0.000340
     96 H                    -0.045814       0.000270
  --------------------------------------------------------
  Sum of atomic charges =    -3.000000

                    Cartesian Multipole Moments
 -----------------------------------------------------------------
    Charge (ESU x 10^10)
               -14.4096
    Dipole Moment (Debye)
         X      -0.4749      Y      -3.4884      Z       8.5415
       Tot       9.2386
    Quadrupole Moments (Debye-Ang)
        XX    -464.1491     XY      -6.5768     YY    -430.6879
        XZ       9.0493     YZ     -24.9325     ZZ    -362.3754

 Final energy is -3742.946963847357
	**  OPTIMIZATION CONVERGED  **

             Standard Nuclear Orientation (Angstroms)
    I     Atom           X                Y                Z
 ----------------------------------------------------------------
    1      C       2.6394891728    -2.3530257082     0.1213320868
    2      C       3.6629686774    -3.1654780150     0.6451794411
    3      C       4.9917127887    -3.0117244625     0.2239921367
    4      C       5.3177184036    -2.0733517928    -0.7670663355
    5      C       4.2881646713    -1.3021447305    -1.3544873281
    6      C       2.9720101967    -1.3870604291    -0.8995945604
    7      H       3.4038614032    -3.9063527224     1.4074165432
    8      O       1.9831504436    -0.6085398535    -1.3244471704
    9      C       6.7165045303    -1.7265163048    -1.1307063113
   10      O       7.0231333561    -1.2251873978    -2.2260037366
   11      N       7.6434812658    -1.9311455891    -0.1445274935
   12      H       7.2759623883    -2.1431411348     0.7766009322
   13      C       8.9778117953    -1.3506434030    -0.1728802359
   14      H       9.6859919195    -2.0816202603     0.2507877517
   15      H       9.2454973864    -1.1969913567    -1.2275561236
   16      C       9.0754942530    -0.0297363587     0.6058521464
   17      H      10.1476432965     0.2011434377     0.7293237159
   18      H       8.6770253442    -0.1845099672     1.6249812048
   19      C       8.3580374728     1.1887513426    -0.0466860499
   20      H       7.9926594849     0.9033234266    -1.0463310324
   21      H       9.1041388515     1.9862365569    -0.1990236384
   22      N       7.2317236352     1.7855009340     0.6736458523
   23      H       7.5172764689     1.9967563785     1.6327215720
   24      C       4.8101798268     1.7858049043     1.2032188176
   25      H       3.9422234423     1.1099856151     1.3023144136
   26      H       5.0331604593     2.1548370343     2.2206241548
   27      C       6.0117229922     0.9792753438     0.6977946936
   28      H       6.1108278737     0.0496774904     1.2947290159
   29      H       5.8160489725     0.6566835278    -0.3346986987
   30      C       4.4584413107     2.9638022023     0.2866363686
   31      H       3.9242520189     3.7504432321     0.8390277119
   32      H       5.4022345399     3.4103848170    -0.0671028840
   33      C       3.6034812463     2.5893668400    -0.9347707527
   34      H       3.9497571286     1.6442058993    -1.3751249671
   35      H       3.7076150164     3.3776400135    -1.6992355483
   36      N       2.1861485993     2.4232213089    -0.6273011352
   37      H       1.7389399340     1.5167435584    -0.7883233366
   38      C       1.4095958745     3.4985352996    -0.3629443174
   39      O       1.8729656189     4.6508548971    -0.3173715546
   40      C      -0.0763230024     3.2723683889    -0.1290352756
   41      H      -0.6060286403     3.5501313837    -1.0537832755
   42      H      -0.3717974452     4.0047064336     0.6343972896
   43      C      -2.0277653013     1.8559097672     0.6964936230
   44      H      -2.2688846950     0.8361390238     1.0279933947
   45      H      -2.1707383883     2.5549395282     1.5325413648
   46      C      -2.9406847066     2.2837358755    -0.4335309127
   47      O      -3.1371081741     3.4807134045    -0.7006290745
   48      N      -3.5060100540     1.2765754925    -1.1428113021
   49      C      -4.3331086600     1.4911662210    -2.3214117759
   50      H      -3.2701481591     0.3211403149    -0.8876667707
   51      C      -5.8279243997     1.2728072555    -2.0652605543
   52      H      -3.9896181958     0.8021591600    -3.1090343130
   53      H      -4.1500713571     2.5224681307    -2.6560763013
   54      C      -6.4260984550     2.2317019631    -1.0360794215
   55      H      -6.3601876938     1.3833025853    -3.0282667230
   56      H      -5.9874324800     0.2311570111    -1.7466184072
   57      C      -7.8864424153     1.9081094845    -0.6756928005
   58      H      -6.3747527233     3.2675362142    -1.4165427276
   59      H      -5.8110476356     2.2123501513    -0.1211392768
   60      H      -8.2722107728     2.7053559090    -0.0141452818
   61      H      -8.5005127540     1.9361346994    -1.5932435496
   62      C      -6.1717564167    -2.1918175063    -0.4808005226
   63      C      -4.3349847573    -2.2768754359    -2.1385197078
   64      O      -7.0419316100    -2.0126908866    -1.3595787047
   65      C      -4.7242556224    -2.1619192774    -0.7965952894
   66      C      -2.9899893753    -2.1614713158    -2.5077409237
   67      C      -3.7314550414    -1.9184492374     0.1883105992
   68      C      -1.9938231626    -1.9028818726    -1.5455789667
   69      C      -2.3831935231    -1.7823728777    -0.1558877669
   70      H      -3.9961314729    -1.7655105209     1.2380594980
   71      O      -0.7210731452    -1.7291262875    -1.8230153114
   72      C      -0.5191692765     1.8546644025     0.2781081274
   73      O      -0.3055923926     0.9575414726    -0.7635677556
   74      C       0.2672979571     1.4173156492     1.5523456315
   75      O       0.7697664548     0.2306356038     1.4986110576
   76      O       0.3566409360     2.1885471944     2.5220692130
   77      H       4.5455434308    -0.5675697924    -2.1200600726
   78      O       1.3817841940    -2.3986177175     0.5091963130
   79      H      -2.6911302697    -2.2442707091    -3.5568427395
   80      O      -1.4219009496    -1.4971019096     0.7087726113
   81      Fe      0.2702869927    -0.8525833283    -0.2437676850
   82      N      -8.1385798907     0.6219075787    -0.0174152119
   83      H      -7.9015101907    -0.1394612161    -0.6591874810
   84      N      -6.5246876984    -2.4045316958     0.8196472914
   85      H      -5.7823666591    -2.5163149141     1.5004542191
   86      C      -7.8527755005    -2.0945470939     1.3271480139
   87      H      -8.5302724305    -2.0986075046     0.4636523568
   88      H      -8.1764041716    -2.8942151519     2.0119502609
   89      C      -7.9095932676    -0.7391304401     2.0497798321
   90      H      -8.9588317310    -0.5511505947     2.3366644974
   91      H      -7.3214358318    -0.8024164638     2.9823830841
   92      C      -7.3847686973     0.4376878042     1.2241767146
   93      H      -7.4893378632     1.3596446299     1.8221908115
   94      H      -6.2962422761     0.3031465617     1.0561174684
   95      H      -5.1047237906    -2.4425153924    -2.8933849291
   96      H       5.7684411974    -3.6403279267     0.6661873893
 ----------------------------------------------------------------

 Total job time:  153985.17s(wall), 2544813.16s(cpu)
        *  Thank you very much for using Q-Chem.  Have a nice day.  *
