 Q-Chem 6.0, Q-Chem, Inc., Pleasanton, CA (2022)
 Q-Chem 6.0.2 for Intel X86 EM64T Linux

User input:
--------------------------------------------------------------
$molecule
3 6
O   -0.3466131   -2.1925915   -0.8644273
O    1.4677603    1.2639657    0.1008649
Fe    0.5606045   -0.4640498   -0.3817863
O   -1.2268977    0.4548744   -0.3686848
O    2.3476791   -1.3854784   -0.3973068
O    0.7635727   -0.0342159   -2.3344523
O    0.3529396   -0.8971048    1.5695018
H   -1.3044005   -2.3148983   -1.0115494
H    1.0325916    2.1259242    0.2483026
H   -1.6429598    0.9218496   -1.1188343
H    2.9344269   -1.4826716   -1.1720337
H    0.4574906   -0.5933085   -3.0746645
H    0.6661709   -0.3472927    2.3135600
H   -0.0643834   -1.6966371    1.9441240
H    2.7677277   -1.8492579    0.3523799
H    2.4229520    1.3820992    0.2669800
H    1.2208060    0.7405899   -2.7144236
H    0.0881918   -3.0549430   -1.0095007
H   -1.8176283    0.5479667    0.4037113
$end

$rem
BASIS  =  gen
DFT_D  =  D3_BJ
GUI  =  2
JOB_TYPE  =  Frequency
METHOD  =  B3LYP
SCF_CONVERGENCE  =  8
SOLVENT_METHOD  =  PCM
MEM_TOTAL  =  50000
$end

$pcm
THEORY  CPCM
$end

$solvent
DIELECTRIC  78.39
$end

$van_der_waals
26   2.44
$end

!----------------------------------------------------------------------
! Basis Set Exchange
! Basis set: cc-pVDZ
!----------------------------------------------------------------------

$rem
BASIS GEN
PURECART 11
$end

$basis
H     0
S   4   1.00
1.301000D+01           1.968500D-02
1.962000D+00           1.379770D-01
4.446000D-01           4.781480D-01
1.220000D-01           5.012400D-01
S   1   1.00
1.220000D-01           1.000000D+00
P   1   1.00
7.270000D-01           1.0000000
****
C     0
S   9   1.00
6.665000D+03           6.920000D-04
1.000000D+03           5.329000D-03
2.280000D+02           2.707700D-02
6.471000D+01           1.017180D-01
2.106000D+01           2.747400D-01
7.495000D+00           4.485640D-01
2.797000D+00           2.850740D-01
5.215000D-01           1.520400D-02
1.596000D-01          -3.191000D-03
S   9   1.00
6.665000D+03          -1.460000D-04
1.000000D+03          -1.154000D-03
2.280000D+02          -5.725000D-03
6.471000D+01          -2.331200D-02
2.106000D+01          -6.395500D-02
7.495000D+00          -1.499810D-01
2.797000D+00          -1.272620D-01
5.215000D-01           5.445290D-01
1.596000D-01           5.804960D-01
S   1   1.00
1.596000D-01           1.000000D+00
P   4   1.00
9.439000D+00           3.810900D-02
2.002000D+00           2.094800D-01
5.456000D-01           5.085570D-01
1.517000D-01           4.688420D-01
P   1   1.00
1.517000D-01           1.000000D+00
D   1   1.00
5.500000D-01           1.0000000
****
N     0
S   9   1.00
9.046000D+03           7.000000D-04
1.357000D+03           5.389000D-03
3.093000D+02           2.740600D-02
8.773000D+01           1.032070D-01
2.856000D+01           2.787230D-01
1.021000D+01           4.485400D-01
3.838000D+00           2.782380D-01
7.466000D-01           1.544000D-02
2.248000D-01          -2.864000D-03
S   9   1.00
9.046000D+03          -1.530000D-04
1.357000D+03          -1.208000D-03
3.093000D+02          -5.992000D-03
8.773000D+01          -2.454400D-02
2.856000D+01          -6.745900D-02
1.021000D+01          -1.580780D-01
3.838000D+00          -1.218310D-01
7.466000D-01           5.490030D-01
2.248000D-01           5.788150D-01
S   1   1.00
2.248000D-01           1.000000D+00
P   4   1.00
1.355000D+01           3.991900D-02
2.917000D+00           2.171690D-01
7.973000D-01           5.103190D-01
2.185000D-01           4.622140D-01
P   1   1.00
2.185000D-01           1.000000D+00
D   1   1.00
8.170000D-01           1.0000000
****
O     0
S   9   1.00
1.172000D+04           7.100000D-04
1.759000D+03           5.470000D-03
4.008000D+02           2.783700D-02
1.137000D+02           1.048000D-01
3.703000D+01           2.830620D-01
1.327000D+01           4.487190D-01
5.025000D+00           2.709520D-01
1.013000D+00           1.545800D-02
3.023000D-01          -2.585000D-03
S   9   1.00
1.172000D+04          -1.600000D-04
1.759000D+03          -1.263000D-03
4.008000D+02          -6.267000D-03
1.137000D+02          -2.571600D-02
3.703000D+01          -7.092400D-02
1.327000D+01          -1.654110D-01
5.025000D+00          -1.169550D-01
1.013000D+00           5.573680D-01
3.023000D-01           5.727590D-01
S   1   1.00
3.023000D-01           1.000000D+00
P   4   1.00
1.770000D+01           4.301800D-02
3.854000D+00           2.289130D-01
1.046000D+00           5.087280D-01
2.753000D-01           4.605310D-01
P   1   1.00
2.753000D-01           1.000000D+00
D   1   1.00
1.185000D+00           1.0000000
****
Fe     0
S   20   1.00
4.316265D+06           8.048803D-06
6.463424D+05           6.258306D-05
1.470897D+05           3.290239D-04
4.166152D+04           1.387355D-03
1.359077D+04           5.023256D-03
4.905750D+03           1.610140D-02
1.912746D+03           4.590034D-02
7.926043D+02           1.136154D-01
3.448065D+02           2.283869D-01
1.558999D+02           3.221159D-01
7.223091D+01           2.383661D-01
3.272506D+01           7.404667D-02
1.566762D+01           9.214197D-02
7.503483D+00           9.339790D-02
3.312223D+00           1.573965D-02
1.558471D+00          -4.186682D-04
6.839140D-01           5.376318D-05
1.467570D-01          -3.816654D-05
7.058300D-02           4.319603D-05
3.144900D-02          -3.401019D-06
S   20   1.00
4.316265D+06          -4.155954D-06
6.463424D+05          -3.231401D-05
1.470897D+05          -1.699525D-04
4.166152D+04          -7.171369D-04
1.359077D+04          -2.603625D-03
4.905750D+03          -8.399109D-03
1.912746D+03          -2.434109D-02
7.926043D+02          -6.251948D-02
3.448065D+02          -1.365929D-01
1.558999D+02          -2.312707D-01
7.223091D+01          -2.383734D-01
3.272506D+01           3.123837D-02
1.566762D+01           5.086818D-01
7.503483D+00           4.987695D-01
3.312223D+00           9.033552D-02
1.558471D+00          -6.005337D-03
6.839140D-01           2.312454D-04
1.467570D-01          -5.643680D-04
7.058300D-02           4.992260D-04
3.144900D-02          -1.015293D-04
S   20   1.00
4.316265D+06           9.532178D-07
6.463424D+05           7.414605D-06
1.470897D+05           3.898393D-05
4.166152D+04           1.647152D-04
1.359077D+04           5.985980D-04
4.905750D+03           1.942390D-03
1.912746D+03           5.687237D-03
7.926043D+02           1.501329D-02
3.448065D+02           3.452455D-02
1.558999D+02           6.495820D-02
7.223091D+01           7.716194D-02
3.272506D+01          -1.873411D-02
1.566762D+01          -3.009185D-01
7.503483D+00          -4.554661D-01
3.312223D+00           1.286463D-01
1.558471D+00           7.183316D-01
6.839140D-01           4.051743D-01
1.467570D-01           2.168227D-02
7.058300D-02          -8.343566D-03
3.144900D-02           3.658979D-03
S   20   1.00
4.316265D+06          -2.063008D-07
6.463424D+05          -1.604169D-06
1.470897D+05          -8.438437D-06
4.166152D+04          -3.563151D-05
1.359077D+04          -1.295998D-04
4.905750D+03          -4.201534D-04
1.912746D+03          -1.231954D-03
7.926043D+02          -3.248922D-03
3.448065D+02          -7.493717D-03
1.558999D+02          -1.410102D-02
7.223091D+01          -1.691600D-02
3.272506D+01           4.218996D-03
1.566762D+01           6.833810D-02
7.503483D+00           1.098201D-01
3.312223D+00          -4.009005D-02
1.558471D+00          -2.174739D-01
6.839140D-01          -2.465135D-01
1.467570D-01           2.731435D-01
7.058300D-02           5.748321D-01
3.144900D-02           3.012713D-01
S   20   1.00
4.316265D+06          -4.009367D-07
6.463424D+05          -3.189255D-06
1.470897D+05          -1.623079D-05
4.166152D+04          -7.157920D-05
1.359077D+04          -2.463958D-04
4.905750D+03          -8.544907D-04
1.912746D+03          -2.307593D-03
7.926043D+02          -6.728292D-03
3.448065D+02          -1.366165D-02
1.558999D+02          -3.062240D-02
7.223091D+01          -2.631137D-02
3.272506D+01          -9.760183D-03
1.566762D+01           1.801906D-01
7.503483D+00           1.529634D-01
3.312223D+00           5.505413D-02
1.558471D+00          -9.551364D-01
6.839140D-01           2.586813D-01
1.467570D-01           1.834049D+00
7.058300D-02          -9.333240D-01
3.144900D-02          -6.981605D-01
S   1   1.00
3.144900D-02           1.000000D+00
P   16   1.00
1.774569D+04           4.100000D-05
4.200721D+03           3.690000D-04
1.364429D+03           2.129000D-03
5.220806D+02           9.369000D-03
2.214595D+02           3.309700D-02
1.009096D+02           9.443100D-02
4.840115D+01           2.080770D-01
2.398536D+01           3.323330D-01
1.218250D+01           3.329870D-01
6.242298D+00           1.568430D-01
3.110944D+00           2.154900D-02
1.509958D+00          -2.095000D-03
7.108450D-01          -1.739000D-03
2.731900D-01          -3.000000D-04
1.042330D-01           2.900000D-05
3.829100D-02          -1.100000D-05
P   16   1.00
1.774569D+04          -1.500000D-05
4.200721D+03          -1.300000D-04
1.364429D+03          -7.510000D-04
5.220806D+02          -3.329000D-03
2.214595D+02          -1.191200D-02
1.009096D+02          -3.493300D-02

             Standard Nuclear Orientation (Angstroms)
    I     Atom           X                Y                Z
 ----------------------------------------------------------------
    1      O      -0.3466131000    -2.1925915000    -0.8644273000
    2      O       1.4677603000     1.2639657000     0.1008649000
    3      Fe      0.5606045000    -0.4640498000    -0.3817863000
    4      O      -1.2268977000     0.4548744000    -0.3686848000
    5      O       2.3476791000    -1.3854784000    -0.3973068000
    6      O       0.7635727000    -0.0342159000    -2.3344523000
    7      O       0.3529396000    -0.8971048000     1.5695018000
    8      H      -1.3044005000    -2.3148983000    -1.0115494000
    9      H       1.0325916000     2.1259242000     0.2483026000
   10      H      -1.6429598000     0.9218496000    -1.1188343000
   11      H       2.9344269000    -1.4826716000    -1.1720337000
   12      H       0.4574906000    -0.5933085000    -3.0746645000
   13      H       0.6661709000    -0.3472927000     2.3135600000
   14      H      -0.0643834000    -1.6966371000     1.9441240000
   15      H       2.7677277000    -1.8492579000     0.3523799000
   16      H       2.4229520000     1.3820992000     0.2669800000
   17      H       1.2208060000     0.7405899000    -2.7144236000
   18      H       0.0881918000    -3.0549430000    -1.0095007000
   19      H      -1.8176283000     0.5479667000     0.4037113000
 ----------------------------------------------------------------

   14   -1722.0410513577      3.41e-09  Convergence criterion met
 Total energy in the final basis set =    -1722.0410513577

                    Orbital Energies (a.u.)
 --------------------------------------------------------------

 Alpha MOs
 -- Occupied --
******** -30.3096 -26.1607 -26.1607 -26.1606 -19.2551 -19.2550 -19.2550
-19.2550 -19.2549 -19.2547  -3.7907  -2.5635  -2.5634  -2.5632  -1.1240
 -1.1126  -1.1125  -1.1122  -1.1105  -1.1103  -0.6351  -0.6347  -0.6342
 -0.6341  -0.6336  -0.6253  -0.6251  -0.6246  -0.6022  -0.5648  -0.5643
 -0.5642  -0.5409  -0.5405  -0.5401  -0.4264  -0.4264  -0.4236  -0.4227
 -0.4225  -0.4163  -0.4153  -0.4152

 Beta MOs
 -- Occupied --
******** -30.2122 -26.0796 -26.0796 -26.0795 -19.2515 -19.2514 -19.2514
-19.2514 -19.2513 -19.2511  -3.5649  -2.3256  -2.3255  -2.3254  -1.1165
 -1.1050  -1.1049  -1.1046  -1.1025  -1.1023  -0.6234  -0.6229  -0.6223
 -0.6217  -0.6215  -0.6211  -0.5889  -0.5466  -0.5465  -0.5280  -0.5276
 -0.5272  -0.4234  -0.4216  -0.4213  -0.4106  -0.4094  -0.4092

          Ground-State Mulliken Net Atomic Charges

     Atom                 Charge (a.u.)    Spin (a.u.)
  --------------------------------------------------------
      1 O                    -0.186505       0.098341
      2 O                    -0.186532       0.098529
      3 Fe                    0.888102       4.342447
      4 O                    -0.186911       0.098492
      5 O                    -0.186423       0.098318
      6 O                    -0.187226       0.098485
      7 O                    -0.186944       0.098600
      8 H                     0.269304       0.005551
      9 H                     0.269258       0.005588
     10 H                     0.269387       0.005598
     11 H                     0.269097       0.005529
     12 H                     0.269778       0.005507
     13 H                     0.269626       0.005537
     14 H                     0.269374       0.005597
     15 H                     0.269170       0.005615
     16 H                     0.269510       0.005538
     17 H                     0.269417       0.005612
     18 H                     0.269101       0.005582
     19 H                     0.269416       0.005535
  --------------------------------------------------------
  Sum of atomic charges =     3.000000

                    Cartesian Multipole Moments
 -----------------------------------------------------------------
    Charge (ESU x 10^10)
                14.4096
    Dipole Moment (Debye)
         X       8.1651      Y      -6.7755      Z      -5.4675
       Tot      11.9360
    Quadrupole Moments (Debye-Ang)
        XX      -2.3529     XY      -3.9173     YY      -3.7869
        XZ      -3.0446     YZ       2.8765     ZZ      -4.7237

 Frequency:        94.15                 112.06                 113.00
 Force Cnst:      0.0162                 0.0216                 0.0337
 Red. Mass:       3.1024                 2.9242                 4.4772
 IR Intens:       14.367                 25.572                  4.705
 Frequency:       142.91                 155.65                 157.96
 Force Cnst:      0.0380                 0.0565                 0.0465
 Red. Mass:       3.1620                 3.9565                 3.1641
 IR Intens:       55.116                 13.910                 78.418
 Frequency:       165.97                 166.77                 172.35
 Force Cnst:      0.0407                 0.0753                 0.0413
 Red. Mass:       2.5080                 4.5977                 2.3571
 IR Intens:      276.700                 15.222                262.571
 Frequency:       178.51                 193.76                 201.58
 Force Cnst:      0.0440                 0.0338                 0.0283
 Red. Mass:       2.3457                 1.5275                 1.1822
 IR Intens:      197.206                415.735                226.562
 Frequency:       209.35                 211.21                 230.35
 Force Cnst:      0.0293                 0.0313                 0.0349
 Red. Mass:       1.1361                 1.1901                 1.1169
 IR Intens:       28.589                448.494                105.886
 Frequency:       231.88                 250.74                 284.32
 Force Cnst:      0.0333                 0.0391                 0.0483
 Red. Mass:       1.0521                 1.0564                 1.0144
 IR Intens:       23.773                130.979                  8.256
 Frequency:       289.77                 306.54                 366.25
 Force Cnst:      0.0502                 0.0566                 0.0802
 Red. Mass:       1.0143                 1.0215                 1.0142
 IR Intens:        9.471                  0.336                  3.607
 Frequency:       375.25                 375.75                 459.53
 Force Cnst:      0.4862                 0.4862                 0.8475
 Red. Mass:       5.8606                 5.8445                 6.8119
 IR Intens:        0.148                  0.007                 95.474
 Frequency:       462.63                 462.89                 463.94
 Force Cnst:      0.7530                 0.8858                 0.9085
 Red. Mass:       5.9714                 7.0166                 7.1641
 IR Intens:        1.010                104.780                 87.529
 Frequency:       591.46                 594.44                 604.43
 Force Cnst:      0.2477                 0.2499                 0.2696
 Red. Mass:       1.2017                 1.2005                 1.2527
 IR Intens:       12.467                 11.208                273.221
 Frequency:       606.31                 620.22                 629.31
 Force Cnst:      0.2735                 0.2677                 0.2844
 Red. Mass:       1.2628                 1.1813                 1.2189
 IR Intens:      252.409                  1.488                260.732
 Frequency:      1588.00                1588.71                1589.55
 Force Cnst:      1.6185                 1.6193                 1.6190
 Red. Mass:       1.0893                 1.0889                 1.0876
 IR Intens:      239.623                253.892                 58.610
 Frequency:      1594.44                1601.76                1608.33
 Force Cnst:      1.6259                 1.6453                 1.6508
 Red. Mass:       1.0855                 1.0884                 1.0832
 IR Intens:        3.737                279.174                  0.150
 Frequency:      3662.45                3662.61                3662.71
 Force Cnst:      8.2499                 8.2501                 8.2508
 Red. Mass:       1.0439                 1.0438                 1.0439
 IR Intens:      410.207                342.782                897.705
 Frequency:      3663.42                3664.68                3690.08
 Force Cnst:      8.2539                 8.2597                 8.3937
 Red. Mass:       1.0438                 1.0439                 1.0462
 IR Intens:      618.057                507.757                  1.139
 Frequency:      3745.49                3745.94                3745.96
 Force Cnst:      8.9644                 8.9686                 8.9676
 Red. Mass:       1.0846                 1.0848                 1.0847
 IR Intens:      563.361                498.332                794.893
 Frequency:      3746.55                3746.86                3748.11
 Force Cnst:      8.9704                 8.9716                 8.9789
 Red. Mass:       1.0847                 1.0846                 1.0848
 IR Intens:        1.217                218.760                290.108

 STANDARD THERMODYNAMIC QUANTITIES AT   298.15 K  AND     1.00 ATM

   This Molecule has  0 Imaginary Frequencies
   Zero point vibrational energy:       92.260 kcal/mol

   Atom    1 Element O  Has Mass   15.99491
   Atom    2 Element O  Has Mass   15.99491
   Atom    3 Element Fe Has Mass   55.93490
   Atom    4 Element O  Has Mass   15.99491
   Atom    5 Element O  Has Mass   15.99491
   Atom    6 Element O  Has Mass   15.99491
   Atom    7 Element O  Has Mass   15.99491
   Atom    8 Element H  Has Mass    1.00783
   Atom    9 Element H  Has Mass    1.00783
   Atom   10 Element H  Has Mass    1.00783
   Atom   11 Element H  Has Mass    1.00783
   Atom   12 Element H  Has Mass    1.00783
   Atom   13 Element H  Has Mass    1.00783
   Atom   14 Element H  Has Mass    1.00783
   Atom   15 Element H  Has Mass    1.00783
   Atom   16 Element H  Has Mass    1.00783
   Atom   17 Element H  Has Mass    1.00783
   Atom   18 Element H  Has Mass    1.00783
   Atom   19 Element H  Has Mass    1.00783
   Molecular Mass:   163.998320 amu
   Principal axes and moments of inertia in amu*Bohr^2:
                             1           2           3
    Eigenvalues --     1130.16209  1134.01987  1136.94416
          X               0.82026    -0.54698    -0.16728
          Y               0.26997     0.11240     0.95629
          Z               0.50427     0.82956    -0.23986
   Rotational Symmetry Number is   1
   The Molecule is an Asymmetric Top
   Translational Enthalpy:        0.889 kcal/mol
   Rotational Enthalpy:           0.889 kcal/mol
   Vibrational Enthalpy:        101.369 kcal/mol
   gas constant (RT):             0.592 kcal/mol
   Translational Entropy:        41.192  cal/mol.K
   Rotational Entropy:           28.767  cal/mol.K
   Vibrational Entropy:          54.809  cal/mol.K

   Total Enthalpy:              103.738 kcal/mol
   Total Entropy:               124.768  cal/mol.K
 Total job time:  901.40s(wall), 15357.78s(cpu)
        *  Thank you very much for using Q-Chem.  Have a nice day.  *
