 Q-Chem 6.0, Q-Chem, Inc., Pleasanton, CA (2022)
 Q-Chem 6.0.2 for Intel X86 EM64T Linux

User input:
--------------------------------------------------------------
$molecule
3 6
O   -0.1966467   -2.1927901   -0.5815238
O    1.1966317    1.3286611    0.1587176
Fe    0.5102418   -0.4308477   -0.2276229
O   -1.2893854    0.2633235   -0.2035320
O    2.3214187   -1.1206314   -0.2300016
O    0.6059552   -0.0719843   -2.1292792
O    0.3971014   -0.7740772    1.6625529
H   -1.0242987   -2.0596974   -1.1081340
H    0.7221007    1.9591699   -0.4391060
H   -1.3842712    0.8476783   -0.9969230
H    2.6714509   -1.0848977   -1.1542047
H    0.8566922   -0.9124967   -2.5874081
H    0.9479480   -1.5765318    1.8424776
H   -0.5297982   -1.0781231    1.8323547
H    2.2811585   -2.0857360   -0.0134760
H    2.1359918    1.3490929   -0.1539217
H    1.3764730    0.5309898   -2.2796203
H    0.4199685   -2.6498041   -1.2066097
H   -1.3387013    0.8835221    0.5670209
$end

$rem
BASIS  =  gen
DFT_D  =  D3_BJ
GUI  =  2
JOB_TYPE  =  Optimization
METHOD  =  B3LYP
SCF_CONVERGENCE  =  8
SOLVENT_METHOD  =  PCM
MAX_SCF_CYCLES = 200
$end

$pcm
THEORY  CPCM
$end

$solvent
DIELECTRIC  78.39
$end

$van_der_waals
26   2.44
$end

!----------------------------------------------------------------------
! Basis Set Exchange
! Basis set: cc-pVDZ
!----------------------------------------------------------------------

$rem
BASIS GEN
PURECART 11
$end

$basis
H     0
S   4   1.00
1.301000D+01           1.968500D-02
1.962000D+00           1.379770D-01
4.446000D-01           4.781480D-01
1.220000D-01           5.012400D-01
S   1   1.00
1.220000D-01           1.000000D+00
P   1   1.00
7.270000D-01           1.0000000
****
C     0
S   9   1.00
6.665000D+03           6.920000D-04
1.000000D+03           5.329000D-03
2.280000D+02           2.707700D-02
6.471000D+01           1.017180D-01
2.106000D+01           2.747400D-01
7.495000D+00           4.485640D-01
2.797000D+00           2.850740D-01
5.215000D-01           1.520400D-02
1.596000D-01          -3.191000D-03
S   9   1.00
6.665000D+03          -1.460000D-04
1.000000D+03          -1.154000D-03
2.280000D+02          -5.725000D-03
6.471000D+01          -2.331200D-02
2.106000D+01          -6.395500D-02
7.495000D+00          -1.499810D-01
2.797000D+00          -1.272620D-01
5.215000D-01           5.445290D-01
1.596000D-01           5.804960D-01
S   1   1.00
1.596000D-01           1.000000D+00
P   4   1.00
9.439000D+00           3.810900D-02
2.002000D+00           2.094800D-01
5.456000D-01           5.085570D-01
1.517000D-01           4.688420D-01
P   1   1.00
1.517000D-01           1.000000D+00
D   1   1.00
5.500000D-01           1.0000000
****
N     0
S   9   1.00
9.046000D+03           7.000000D-04
1.357000D+03           5.389000D-03
3.093000D+02           2.740600D-02
8.773000D+01           1.032070D-01
2.856000D+01           2.787230D-01
1.021000D+01           4.485400D-01
3.838000D+00           2.782380D-01
7.466000D-01           1.544000D-02
2.248000D-01          -2.864000D-03
S   9   1.00
9.046000D+03          -1.530000D-04
1.357000D+03          -1.208000D-03
3.093000D+02          -5.992000D-03
8.773000D+01          -2.454400D-02
2.856000D+01          -6.745900D-02
1.021000D+01          -1.580780D-01
3.838000D+00          -1.218310D-01
7.466000D-01           5.490030D-01
2.248000D-01           5.788150D-01
S   1   1.00
2.248000D-01           1.000000D+00
P   4   1.00
1.355000D+01           3.991900D-02
2.917000D+00           2.171690D-01
7.973000D-01           5.103190D-01
2.185000D-01           4.622140D-01
P   1   1.00
2.185000D-01           1.000000D+00
D   1   1.00
8.170000D-01           1.0000000
****
O     0
S   9   1.00
1.172000D+04           7.100000D-04
1.759000D+03           5.470000D-03
4.008000D+02           2.783700D-02
1.137000D+02           1.048000D-01
3.703000D+01           2.830620D-01
1.327000D+01           4.487190D-01
5.025000D+00           2.709520D-01
1.013000D+00           1.545800D-02
3.023000D-01          -2.585000D-03
S   9   1.00
1.172000D+04          -1.600000D-04
1.759000D+03          -1.263000D-03
4.008000D+02          -6.267000D-03
1.137000D+02          -2.571600D-02
3.703000D+01          -7.092400D-02
1.327000D+01          -1.654110D-01
5.025000D+00          -1.169550D-01
1.013000D+00           5.573680D-01
3.023000D-01           5.727590D-01
S   1   1.00
3.023000D-01           1.000000D+00
P   4   1.00
1.770000D+01           4.301800D-02
3.854000D+00           2.289130D-01
1.046000D+00           5.087280D-01
2.753000D-01           4.605310D-01
P   1   1.00
2.753000D-01           1.000000D+00
D   1   1.00
1.185000D+00           1.0000000
****
Fe     0
S   20   1.00
4.316265D+06           8.048803D-06
6.463424D+05           6.258306D-05
1.470897D+05           3.290239D-04
4.166152D+04           1.387355D-03
1.359077D+04           5.023256D-03
4.905750D+03           1.610140D-02
1.912746D+03           4.590034D-02
7.926043D+02           1.136154D-01
3.448065D+02           2.283869D-01
1.558999D+02           3.221159D-01
7.223091D+01           2.383661D-01
3.272506D+01           7.404667D-02
1.566762D+01           9.214197D-02
7.503483D+00           9.339790D-02
3.312223D+00           1.573965D-02
1.558471D+00          -4.186682D-04
6.839140D-01           5.376318D-05
1.467570D-01          -3.816654D-05
7.058300D-02           4.319603D-05
3.144900D-02          -3.401019D-06
S   20   1.00
4.316265D+06          -4.155954D-06
6.463424D+05          -3.231401D-05
1.470897D+05          -1.699525D-04
4.166152D+04          -7.171369D-04
1.359077D+04          -2.603625D-03
4.905750D+03          -8.399109D-03
1.912746D+03          -2.434109D-02
7.926043D+02          -6.251948D-02
3.448065D+02          -1.365929D-01
1.558999D+02          -2.312707D-01
7.223091D+01          -2.383734D-01
3.272506D+01           3.123837D-02
1.566762D+01           5.086818D-01
7.503483D+00           4.987695D-01
3.312223D+00           9.033552D-02
1.558471D+00          -6.005337D-03
6.839140D-01           2.312454D-04
1.467570D-01          -5.643680D-04
7.058300D-02           4.992260D-04
3.144900D-02          -1.015293D-04
S   20   1.00
4.316265D+06           9.532178D-07
6.463424D+05           7.414605D-06
1.470897D+05           3.898393D-05
4.166152D+04           1.647152D-04
1.359077D+04           5.985980D-04
4.905750D+03           1.942390D-03
1.912746D+03           5.687237D-03
7.926043D+02           1.501329D-02
3.448065D+02           3.452455D-02
1.558999D+02           6.495820D-02
7.223091D+01           7.716194D-02
3.272506D+01          -1.873411D-02
1.566762D+01          -3.009185D-01
7.503483D+00          -4.554661D-01
3.312223D+00           1.286463D-01
1.558471D+00           7.183316D-01
6.839140D-01           4.051743D-01
1.467570D-01           2.168227D-02
7.058300D-02          -8.343566D-03
3.144900D-02           3.658979D-03
S   20   1.00
4.316265D+06          -2.063008D-07
6.463424D+05          -1.604169D-06
1.470897D+05          -8.438437D-06
4.166152D+04          -3.563151D-05
1.359077D+04          -1.295998D-04
4.905750D+03          -4.201534D-04
1.912746D+03          -1.231954D-03
7.926043D+02          -3.248922D-03
3.448065D+02          -7.493717D-03
1.558999D+02          -1.410102D-02
7.223091D+01          -1.691600D-02
3.272506D+01           4.218996D-03
1.566762D+01           6.833810D-02
7.503483D+00           1.098201D-01
3.312223D+00          -4.009005D-02
1.558471D+00          -2.174739D-01
6.839140D-01          -2.465135D-01
1.467570D-01           2.731435D-01
7.058300D-02           5.748321D-01
3.144900D-02           3.012713D-01
S   20   1.00
4.316265D+06          -4.009367D-07
6.463424D+05          -3.189255D-06
1.470897D+05          -1.623079D-05
4.166152D+04          -7.157920D-05
1.359077D+04          -2.463958D-04
4.905750D+03          -8.544907D-04
1.912746D+03          -2.307593D-03
7.926043D+02          -6.728292D-03
3.448065D+02          -1.366165D-02
1.558999D+02          -3.062240D-02
7.223091D+01          -2.631137D-02
3.272506D+01          -9.760183D-03
1.566762D+01           1.801906D-01
7.503483D+00           1.529634D-01
3.312223D+00           5.505413D-02
1.558471D+00          -9.551364D-01
6.839140D-01           2.586813D-01
1.467570D-01           1.834049D+00
7.058300D-02          -9.333240D-01
3.144900D-02          -6.981605D-01
S   1   1.00
3.144900D-02           1.000000D+00
P   16   1.00
1.774569D+04           4.100000D-05
4.200721D+03           3.690000D-04
1.364429D+03           2.129000D-03
5.220806D+02           9.369000D-03
2.214595D+02           3.309700D-02
1.009096D+02           9.443100D-02
4.840115D+01           2.080770D-01
2.398536D+01           3.323330D-01
1.218250D+01           3.329870D-01
6.242298D+00           1.568430D-01
3.110944D+00           2.154900D-02
1.509958D+00          -2.095000D-03
7.108450D-01          -1.739000D-03
2.731900D-01          -3.000000D-04
1.042330D-01           2.900000D-05
3.829100D-02          -1.100000D-05
P   16   1.00
1.774569D+04          -1.500000D-05
4.200721D+03          -1.300000D-04
1.364429D+03          -7.510000D-04
5.220806D+02          -3.329000D-03
2.214595D+02          -1.191200D-02

   15   -1721.9556314854      9.02e-09  Convergence criterion met
 Total energy in the final basis set =    -1721.9556314854
   13   -1721.9928919461      8.51e-09  Convergence criterion met
 Total energy in the final basis set =    -1721.9928919461
   13   -1722.0164961238      9.02e-09  Convergence criterion met
 Total energy in the final basis set =    -1722.0164961238
   13   -1722.0208063672      8.37e-09  Convergence criterion met
 Total energy in the final basis set =    -1722.0208063672
   13   -1722.0241628460      8.60e-09  Convergence criterion met
 Total energy in the final basis set =    -1722.0241628460
   13   -1722.0269143642      8.31e-09  Convergence criterion met
 Total energy in the final basis set =    -1722.0269143642
   13   -1722.0296945798      7.40e-09  Convergence criterion met
 Total energy in the final basis set =    -1722.0296945798
   13   -1722.0322671234      5.91e-09  Convergence criterion met
   11   -1722.0410341410      4.83e-09  Convergence criterion met
 Total energy in the final basis set =    -1722.0410341410
   11   -1722.0410382378      8.69e-09  Convergence criterion met
 Total energy in the final basis set =    -1722.0410382378
   11   -1722.0410429905      3.41e-09  Convergence criterion met
 Total energy in the final basis set =    -1722.0410429905
   11   -1722.0410470988      9.68e-09  Convergence criterion met
 Total energy in the final basis set =    -1722.0410470988
   11   -1722.0410496834      4.90e-09  Convergence criterion met
 Total energy in the final basis set =    -1722.0410496834
   11   -1722.0410507510      9.52e-09  Convergence criterion met
 Total energy in the final basis set =    -1722.0410507510
   11   -1722.0410513577      5.05e-09  Convergence criterion met
 Total energy in the final basis set =    -1722.0410513577

                    Orbital Energies (a.u.)
 --------------------------------------------------------------

 Alpha MOs
 -- Occupied --
******** -30.3096 -26.1607 -26.1607 -26.1606 -19.2551 -19.2550 -19.2550
-19.2550 -19.2549 -19.2547  -3.7907  -2.5635  -2.5634  -2.5632  -1.1240
 -1.1126  -1.1125  -1.1122  -1.1105  -1.1103  -0.6351  -0.6347  -0.6342
 -0.6341  -0.6336  -0.6253  -0.6251  -0.6246  -0.6022  -0.5648  -0.5643
 -0.5642  -0.5409  -0.5405  -0.5401  -0.4264  -0.4264  -0.4236  -0.4227
 -0.4225  -0.4163  -0.4153  -0.4152

 Beta MOs
 -- Occupied --
******** -30.2122 -26.0796 -26.0795 -26.0795 -19.2514 -19.2514 -19.2514
-19.2514 -19.2513 -19.2511  -3.5649  -2.3255  -2.3255  -2.3254  -1.1165
 -1.1050  -1.1049  -1.1046  -1.1025  -1.1023  -0.6234  -0.6229  -0.6223
 -0.6217  -0.6215  -0.6210  -0.5889  -0.5466  -0.5465  -0.5280  -0.5276
 -0.5271  -0.4234  -0.4216  -0.4213  -0.4106  -0.4094  -0.4092

          Ground-State Mulliken Net Atomic Charges

     Atom                 Charge (a.u.)    Spin (a.u.)
  --------------------------------------------------------
      1 O                    -0.186505       0.098341
      2 O                    -0.186532       0.098529
      3 Fe                    0.888102       4.342447
      4 O                    -0.186911       0.098492
      5 O                    -0.186422       0.098318
      6 O                    -0.187226       0.098485
      7 O                    -0.186944       0.098600
      8 H                     0.269304       0.005551
      9 H                     0.269258       0.005588
     10 H                     0.269387       0.005598
     11 H                     0.269097       0.005529
     12 H                     0.269778       0.005507
     13 H                     0.269626       0.005537
     14 H                     0.269374       0.005597
     15 H                     0.269170       0.005615
     16 H                     0.269510       0.005538
     17 H                     0.269417       0.005612
     18 H                     0.269101       0.005582
     19 H                     0.269416       0.005535
  --------------------------------------------------------
  Sum of atomic charges =     3.000000

                    Cartesian Multipole Moments
 -----------------------------------------------------------------
    Charge (ESU x 10^10)
                14.4096
    Dipole Moment (Debye)
         X       8.1651      Y      -6.7755      Z      -5.4675
       Tot      11.9360
    Quadrupole Moments (Debye-Ang)
        XX      -2.3530     XY      -3.9173     YY      -3.7869
        XZ      -3.0446     YZ       2.8765     ZZ      -4.7237

 Final energy is -1722.041051357701

             Standard Nuclear Orientation (Angstroms)
    I     Atom           X                Y                Z
 ----------------------------------------------------------------
    1      O      -0.3466130659    -2.1925914954    -0.8644273393
    2      O       1.4677603424     1.2639657241     0.1008649389
    3      Fe      0.5606044802    -0.4640498322    -0.3817863026
    4      O      -1.2268976901     0.4548744225    -0.3686847759
    5      O       2.3476791388    -1.3854784087    -0.3973067502
    6      O       0.7635727078    -0.0342158728    -2.3344522872
    7      O       0.3529395523    -0.8971048385     1.5695017876
    8      H      -1.3044004943    -2.3148982770    -1.0115494480
    9      H       1.0325915588     2.1259241831     0.2483025742
   10      H      -1.6429598038     0.9218495534    -1.1188342800
   11      H       2.9344269082    -1.4826716099    -1.1720337285
   12      H       0.4574905910    -0.5933085035    -3.0746645109
   13      H       0.6661709097    -0.3472927124     2.3135599743
   14      H      -0.0643834120    -1.6966370739     1.9441239638
   15      H       2.7677276711    -1.8492578927     0.3523798596
   16      H       2.4229519667     1.3820991581     0.2669799857
   17      H       1.2208060367     0.7405898955    -2.7144235799
   18      H       0.0881917846    -3.0549430187    -1.0095007100
   19      H      -1.8176282823     0.5479666990     0.4037113283
 ----------------------------------------------------------------

 Total job time:  7826.81s(wall), 137177.78s(cpu)
        *  Thank you very much for using Q-Chem.  Have a nice day.  *
