 Q-Chem 6.0, Q-Chem, Inc., Pleasanton, CA (2022)
 Q-Chem 6.0.2 for Intel X86 EM64T Linux

User input:
--------------------------------------------------------------
$molecule
-3 6
Fe    1.2239054    0.9736807   -0.3849133
O    0.6062048   -0.9646341   -0.3173741
C    0.0978894   -1.3682851    0.8062742
C    0.0403081   -0.2580997    1.9075682
O   -0.4962686    1.5656685   -1.2970065
O   -0.4362866   -0.5012671    3.0147174
O   -0.3141771   -2.5028222    1.0409917
O    1.4322977    2.9946460   -0.2660168
C    0.4742322    3.7022702   -0.7813490
C   -0.6820487    2.8461833   -1.3978900
O    0.5284757    0.8826008    1.5272111
O   -1.6543943    3.3913432   -1.9170222
O    0.4264120    4.9305666   -0.8117546
O    2.1336601    0.6699629   -2.1837848
O    3.1423055    0.6799125    0.2262869
C    3.4105472    0.4421150   -2.1497696
C    4.0133602    0.4410327   -0.7053961
O    4.1300688    0.2399275   -3.1265623
O    5.2111316    0.2265754   -0.5284427
$end

$rem
BASIS  =  gen
DFT_D  =  D3_BJ
GUI  =  2
JOB_TYPE  =  Frequency
METHOD  =  B3LYP
SCF_CONVERGENCE  =  8
SOLVENT_METHOD  =  PCM
MEM_TOTAL  =  80000
$end

$pcm
THEORY  CPCM
$end

$solvent
DIELECTRIC  78.39
$end

$van_der_waals
26   2.44
$end

!----------------------------------------------------------------------
! Basis Set Exchange
! Basis set: cc-pVDZ
!----------------------------------------------------------------------

$rem
BASIS GEN
PURECART 11
$end

$basis
H     0
S   4   1.00
1.301000D+01           1.968500D-02
1.962000D+00           1.379770D-01
4.446000D-01           4.781480D-01
1.220000D-01           5.012400D-01
S   1   1.00
1.220000D-01           1.000000D+00
P   1   1.00
7.270000D-01           1.0000000
****
C     0
S   9   1.00
6.665000D+03           6.920000D-04
1.000000D+03           5.329000D-03
2.280000D+02           2.707700D-02
6.471000D+01           1.017180D-01
2.106000D+01           2.747400D-01
7.495000D+00           4.485640D-01
2.797000D+00           2.850740D-01
5.215000D-01           1.520400D-02
1.596000D-01          -3.191000D-03
S   9   1.00
6.665000D+03          -1.460000D-04
1.000000D+03          -1.154000D-03
2.280000D+02          -5.725000D-03
6.471000D+01          -2.331200D-02
2.106000D+01          -6.395500D-02
7.495000D+00          -1.499810D-01
2.797000D+00          -1.272620D-01
5.215000D-01           5.445290D-01
1.596000D-01           5.804960D-01
S   1   1.00
1.596000D-01           1.000000D+00
P   4   1.00
9.439000D+00           3.810900D-02
2.002000D+00           2.094800D-01
5.456000D-01           5.085570D-01
1.517000D-01           4.688420D-01
P   1   1.00
1.517000D-01           1.000000D+00
D   1   1.00
5.500000D-01           1.0000000
****
N     0
S   9   1.00
9.046000D+03           7.000000D-04
1.357000D+03           5.389000D-03
3.093000D+02           2.740600D-02
8.773000D+01           1.032070D-01
2.856000D+01           2.787230D-01
1.021000D+01           4.485400D-01
3.838000D+00           2.782380D-01
7.466000D-01           1.544000D-02
2.248000D-01          -2.864000D-03
S   9   1.00
9.046000D+03          -1.530000D-04
1.357000D+03          -1.208000D-03
3.093000D+02          -5.992000D-03
8.773000D+01          -2.454400D-02
2.856000D+01          -6.745900D-02
1.021000D+01          -1.580780D-01
3.838000D+00          -1.218310D-01
7.466000D-01           5.490030D-01
2.248000D-01           5.788150D-01
S   1   1.00
2.248000D-01           1.000000D+00
P   4   1.00
1.355000D+01           3.991900D-02
2.917000D+00           2.171690D-01
7.973000D-01           5.103190D-01
2.185000D-01           4.622140D-01
P   1   1.00
2.185000D-01           1.000000D+00
D   1   1.00
8.170000D-01           1.0000000
****
O     0
S   9   1.00
1.172000D+04           7.100000D-04
1.759000D+03           5.470000D-03
4.008000D+02           2.783700D-02
1.137000D+02           1.048000D-01
3.703000D+01           2.830620D-01
1.327000D+01           4.487190D-01
5.025000D+00           2.709520D-01
1.013000D+00           1.545800D-02
3.023000D-01          -2.585000D-03
S   9   1.00
1.172000D+04          -1.600000D-04
1.759000D+03          -1.263000D-03
4.008000D+02          -6.267000D-03
1.137000D+02          -2.571600D-02
3.703000D+01          -7.092400D-02
1.327000D+01          -1.654110D-01
5.025000D+00          -1.169550D-01
1.013000D+00           5.573680D-01
3.023000D-01           5.727590D-01
S   1   1.00
3.023000D-01           1.000000D+00
P   4   1.00
1.770000D+01           4.301800D-02
3.854000D+00           2.289130D-01
1.046000D+00           5.087280D-01
2.753000D-01           4.605310D-01
P   1   1.00
2.753000D-01           1.000000D+00
D   1   1.00
1.185000D+00           1.0000000
****
Fe     0
S   20   1.00
4.316265D+06           8.048803D-06
6.463424D+05           6.258306D-05
1.470897D+05           3.290239D-04
4.166152D+04           1.387355D-03
1.359077D+04           5.023256D-03
4.905750D+03           1.610140D-02
1.912746D+03           4.590034D-02
7.926043D+02           1.136154D-01
3.448065D+02           2.283869D-01
1.558999D+02           3.221159D-01
7.223091D+01           2.383661D-01
3.272506D+01           7.404667D-02
1.566762D+01           9.214197D-02
7.503483D+00           9.339790D-02
3.312223D+00           1.573965D-02
1.558471D+00          -4.186682D-04
6.839140D-01           5.376318D-05
1.467570D-01          -3.816654D-05
7.058300D-02           4.319603D-05
3.144900D-02          -3.401019D-06
S   20   1.00
4.316265D+06          -4.155954D-06
6.463424D+05          -3.231401D-05
1.470897D+05          -1.699525D-04
4.166152D+04          -7.171369D-04
1.359077D+04          -2.603625D-03
4.905750D+03          -8.399109D-03
1.912746D+03          -2.434109D-02
7.926043D+02          -6.251948D-02
3.448065D+02          -1.365929D-01
1.558999D+02          -2.312707D-01
7.223091D+01          -2.383734D-01
3.272506D+01           3.123837D-02
1.566762D+01           5.086818D-01
7.503483D+00           4.987695D-01
3.312223D+00           9.033552D-02
1.558471D+00          -6.005337D-03
6.839140D-01           2.312454D-04
1.467570D-01          -5.643680D-04
7.058300D-02           4.992260D-04
3.144900D-02          -1.015293D-04
S   20   1.00
4.316265D+06           9.532178D-07
6.463424D+05           7.414605D-06
1.470897D+05           3.898393D-05
4.166152D+04           1.647152D-04
1.359077D+04           5.985980D-04
4.905750D+03           1.942390D-03
1.912746D+03           5.687237D-03
7.926043D+02           1.501329D-02
3.448065D+02           3.452455D-02
1.558999D+02           6.495820D-02
7.223091D+01           7.716194D-02
3.272506D+01          -1.873411D-02
1.566762D+01          -3.009185D-01
7.503483D+00          -4.554661D-01
3.312223D+00           1.286463D-01
1.558471D+00           7.183316D-01
6.839140D-01           4.051743D-01
1.467570D-01           2.168227D-02
7.058300D-02          -8.343566D-03
3.144900D-02           3.658979D-03
S   20   1.00
4.316265D+06          -2.063008D-07
6.463424D+05          -1.604169D-06
1.470897D+05          -8.438437D-06
4.166152D+04          -3.563151D-05
1.359077D+04          -1.295998D-04
4.905750D+03          -4.201534D-04
1.912746D+03          -1.231954D-03
7.926043D+02          -3.248922D-03
3.448065D+02          -7.493717D-03
1.558999D+02          -1.410102D-02
7.223091D+01          -1.691600D-02
3.272506D+01           4.218996D-03
1.566762D+01           6.833810D-02
7.503483D+00           1.098201D-01
3.312223D+00          -4.009005D-02
1.558471D+00          -2.174739D-01
6.839140D-01          -2.465135D-01
1.467570D-01           2.731435D-01
7.058300D-02           5.748321D-01
3.144900D-02           3.012713D-01
S   20   1.00
4.316265D+06          -4.009367D-07
6.463424D+05          -3.189255D-06
1.470897D+05          -1.623079D-05
4.166152D+04          -7.157920D-05
1.359077D+04          -2.463958D-04
4.905750D+03          -8.544907D-04
1.912746D+03          -2.307593D-03
7.926043D+02          -6.728292D-03
3.448065D+02          -1.366165D-02
1.558999D+02          -3.062240D-02
7.223091D+01          -2.631137D-02
3.272506D+01          -9.760183D-03
1.566762D+01           1.801906D-01
7.503483D+00           1.529634D-01
3.312223D+00           5.505413D-02
1.558471D+00          -9.551364D-01
6.839140D-01           2.586813D-01
1.467570D-01           1.834049D+00
7.058300D-02          -9.333240D-01
3.144900D-02          -6.981605D-01
S   1   1.00
3.144900D-02           1.000000D+00
P   16   1.00
1.774569D+04           4.100000D-05
4.200721D+03           3.690000D-04
1.364429D+03           2.129000D-03
5.220806D+02           9.369000D-03
2.214595D+02           3.309700D-02
1.009096D+02           9.443100D-02
4.840115D+01           2.080770D-01
2.398536D+01           3.323330D-01
1.218250D+01           3.329870D-01
6.242298D+00           1.568430D-01
3.110944D+00           2.154900D-02
1.509958D+00          -2.095000D-03
7.108450D-01          -1.739000D-03
2.731900D-01          -3.000000D-04
1.042330D-01           2.900000D-05
3.829100D-02          -1.100000D-05
P   16   1.00
1.774569D+04          -1.500000D-05
4.200721D+03          -1.300000D-04
1.364429D+03          -7.510000D-04
5.220806D+02          -3.329000D-03
2.214595D+02          -1.191200D-02
1.009096D+02          -3.493300D-02

             Standard Nuclear Orientation (Angstroms)
    I     Atom           X                Y                Z
 ----------------------------------------------------------------
    1      Fe      1.2239054000     0.9736807000    -0.3849133000
    2      O       0.6062048000    -0.9646341000    -0.3173741000
    3      C       0.0978894000    -1.3682851000     0.8062742000
    4      C       0.0403081000    -0.2580997000     1.9075682000
    5      O      -0.4962686000     1.5656685000    -1.2970065000
    6      O      -0.4362866000    -0.5012671000     3.0147174000
    7      O      -0.3141771000    -2.5028222000     1.0409917000
    8      O       1.4322977000     2.9946460000    -0.2660168000
    9      C       0.4742322000     3.7022702000    -0.7813490000
   10      C      -0.6820487000     2.8461833000    -1.3978900000
   11      O       0.5284757000     0.8826008000     1.5272111000
   12      O      -1.6543943000     3.3913432000    -1.9170222000
   13      O       0.4264120000     4.9305666000    -0.8117546000
   14      O       2.1336601000     0.6699629000    -2.1837848000
   15      O       3.1423055000     0.6799125000     0.2262869000
   16      C       3.4105472000     0.4421150000    -2.1497696000
   17      C       4.0133602000     0.4410327000    -0.7053961000
   18      O       4.1300688000     0.2399275000    -3.1265623000
   19      O       5.2111316000     0.2265754000    -0.5284427000
 ----------------------------------------------------------------

   19   -2395.9326100992      4.83e-09  Convergence criterion met
 Total energy in the final basis set =    -2395.9326100992

                    Orbital Energies (a.u.)
 --------------------------------------------------------------

 Alpha MOs
 -- Occupied --
******** -30.1463 -25.9986 -25.9975 -25.9974 -19.1140 -19.1139 -19.1138
-19.1138 -19.1137 -19.1136 -19.0944 -19.0943 -19.0942 -19.0942 -19.0942
-19.0941 -10.2776 -10.2774 -10.2774 -10.2774 -10.2772 -10.2772  -3.6286
 -2.4034  -2.4014  -2.4013  -1.0582  -1.0555  -1.0554  -1.0251  -1.0248
 -1.0247  -0.9716  -0.9671  -0.9669  -0.9463  -0.9456  -0.9455  -0.6110
 -0.6076  -0.6076  -0.5137  -0.5135  -0.5070  -0.5008  -0.4765  -0.4763
 -0.4498  -0.4498  -0.4438  -0.4290  -0.4290  -0.4261  -0.4178  -0.4177
 -0.4106  -0.4103  -0.4051  -0.4050  -0.3782  -0.3781  -0.3705  -0.3704
 -0.3689  -0.3180  -0.3148  -0.3071  -0.3070  -0.2877  -0.2876  -0.2710
 -0.2682  -0.2681  -0.2641  -0.2629  -0.2627  -0.2450  -0.2279  -0.2255
 -0.2254  -0.2181  -0.2180

 Beta MOs
 -- Occupied --
******** -30.0521 -25.9198 -25.9192 -25.9192 -19.1102 -19.1102 -19.1101
-19.1100 -19.1100 -19.1099 -19.0938 -19.0938 -19.0937 -19.0937 -19.0937
-19.0936 -10.2776 -10.2775 -10.2774 -10.2774 -10.2773 -10.2773  -3.4096
 -2.1718  -2.1710  -2.1709  -1.0544  -1.0519  -1.0518  -1.0214  -1.0211
 -1.0210  -0.9670  -0.9622  -0.9621  -0.9409  -0.9400  -0.9399  -0.6087
 -0.6056  -0.6055  -0.4979  -0.4946  -0.4868  -0.4866  -0.4660  -0.4659
 -0.4333  -0.4333  -0.4311  -0.4258  -0.4257  -0.4241  -0.4083  -0.4054
 -0.4053  -0.3720  -0.3694  -0.3692  -0.3177  -0.3176  -0.3097  -0.3082
 -0.2925  -0.2924  -0.2848  -0.2847  -0.2659  -0.2653  -0.2591  -0.2588
 -0.2480  -0.2479  -0.2362  -0.2274  -0.2235  -0.2235

          Ground-State Mulliken Net Atomic Charges

     Atom                 Charge (a.u.)    Spin (a.u.)
  --------------------------------------------------------
      1 Fe                    0.583948       4.244390
      2 O                    -0.379587       0.106566
      3 C                     0.122451      -0.000272
      4 C                     0.122412      -0.000292
      5 O                    -0.380518       0.106394
      6 O                    -0.339462       0.019764
      7 O                    -0.339510       0.019779
      8 O                    -0.380604       0.106334
      9 C                     0.122495      -0.000240
     10 C                     0.122235      -0.000229
     11 O                    -0.379913       0.106659
     12 O                    -0.339225       0.019774
     13 O                    -0.339196       0.019813
     14 O                    -0.380084       0.106008
     15 O                    -0.380218       0.106612
     16 C                     0.122366      -0.000261
     17 C                     0.121982      -0.000248
     18 O                    -0.340029       0.019672
     19 O                    -0.339544       0.019776
  --------------------------------------------------------
  Sum of atomic charges =    -3.000000

                    Cartesian Multipole Moments
 -----------------------------------------------------------------
    Charge (ESU x 10^10)
               -14.4096
    Dipole Moment (Debye)
         X     -17.6861      Y     -13.9100      Z       5.5798
       Tot      23.1823
    Quadrupole Moments (Debye-Ang)
        XX    -215.9429     XY      -6.0582     YY    -205.5985
        XZ      23.8756     YZ      24.6617     ZZ    -175.0454

 Frequency:      -100.28                 -99.06                 -49.41
 Force Cnst:      0.0935                 0.0913                 0.0223
 Red. Mass:      15.7801                15.7937                15.4979
 IR Intens:        2.177                  2.302                  0.130
 Frequency:       -45.94                 -42.60                 -15.00
 Force Cnst:      0.0193                 0.0166                 0.0024
 Red. Mass:      15.5181                15.4863                18.1169
 IR Intens:        0.196                  0.178                  8.853
 Frequency:       112.86                 117.08                 138.38
 Force Cnst:      0.1188                 0.1278                 0.1955
 Red. Mass:      15.8349                15.8260                17.3299
 IR Intens:        0.130                  0.050                  8.219
 Frequency:       142.69                 180.52                 182.53
 Force Cnst:      0.1902                 0.2966                 0.3033
 Red. Mass:      15.8573                15.4483                15.4512
 IR Intens:        0.095                  0.013                  0.007
 Frequency:       209.24                 210.41                 246.35
 Force Cnst:      0.3981                 0.4033                 0.5207
 Red. Mass:      15.4319                15.4610                14.5611
 IR Intens:        1.889                  2.993                  0.023
 Frequency:       291.84                 325.17                 326.35
 Force Cnst:      1.1701                 1.9749                 1.9825
 Red. Mass:      23.3168                31.7021                31.5920
 IR Intens:       72.452                326.785                327.877
 Frequency:       336.53                 338.93                 352.10
 Force Cnst:      1.0502                 1.0644                 1.1574
 Red. Mass:      15.7381                15.7265                15.8457
 IR Intens:       11.319                 14.080                  0.189
 Frequency:       479.21                 481.44                 483.04
 Force Cnst:      1.7472                 1.7669                 1.7778
 Red. Mass:      12.9131                12.9385                12.9323
 IR Intens:       46.526                 70.067                 69.911
 Frequency:       511.15                 512.42                 564.11
 Force Cnst:      2.4353                 2.4471                 2.8339
 Red. Mass:      15.8199                15.8179                15.1149
 IR Intens:      139.927                140.648                  0.036
 Frequency:       564.90                 568.79                 666.81
 Force Cnst:      2.8411                 2.8740                 3.9502
 Red. Mass:      15.1107                15.0775                15.0787
 IR Intens:        0.024                  0.185                  0.006
 Frequency:       765.94                 766.33                 773.55
 Force Cnst:      5.1190                 5.1261                 5.2698
 Red. Mass:      14.8096                14.8150                14.9475
 IR Intens:       53.401                 56.916                306.854
 Frequency:       855.36                 855.92                 856.29
 Force Cnst:      5.3212                 5.3278                 5.3322
 Red. Mass:      12.3442                12.3432                12.3430
 IR Intens:        0.046                  0.005                  0.003
 Frequency:       874.85                 875.35                 973.74
 Force Cnst:      6.6397                 6.6480                 8.3839
 Red. Mass:      14.7242                14.7257                15.0077
 IR Intens:       85.978                 86.229                  0.002
 Frequency:      1263.38                1263.87                1270.30
 Force Cnst:     12.8760                12.8875                13.0704
 Red. Mass:      13.6919                13.6935                13.7477
 IR Intens:       61.213                 60.317                312.492
 Frequency:      1375.42                1376.05                1402.13
 Force Cnst:     14.5754                14.5878                15.3307
 Red. Mass:      13.0767                13.0759                13.2354
 IR Intens:     1126.947               1110.165                  0.265
 Frequency:      1706.20                1707.25                1712.26
 Force Cnst:     22.4936                22.5159                22.4591
 Red. Mass:      13.1143                13.1112                13.0017
 IR Intens:     2261.330               2088.270                618.618
 Frequency:      1712.58                1715.27                1746.58
 Force Cnst:     22.4421                22.5045                23.5364
 Red. Mass:      12.9871                12.9823                13.0951
 IR Intens:      308.102                345.809                  1.234

 STANDARD THERMODYNAMIC QUANTITIES AT   298.15 K  AND     1.00 ATM

   This Molecule has  6 Imaginary Frequencies
   Zero point vibrational energy:       48.879 kcal/mol

   Atom    1 Element Fe Has Mass   55.93490
   Atom    2 Element O  Has Mass   15.99491
   Atom    3 Element C  Has Mass   12.00000
   Atom    4 Element C  Has Mass   12.00000
   Atom    5 Element O  Has Mass   15.99491
   Atom    6 Element O  Has Mass   15.99491
   Atom    7 Element O  Has Mass   15.99491
   Atom    8 Element O  Has Mass   15.99491
   Atom    9 Element C  Has Mass   12.00000
   Atom   10 Element C  Has Mass   12.00000
   Atom   11 Element O  Has Mass   15.99491
   Atom   12 Element O  Has Mass   15.99491
   Atom   13 Element O  Has Mass   15.99491
   Atom   14 Element O  Has Mass   15.99491
   Atom   15 Element O  Has Mass   15.99491
   Atom   16 Element C  Has Mass   12.00000
   Atom   17 Element C  Has Mass   12.00000
   Atom   18 Element O  Has Mass   15.99491
   Atom   19 Element O  Has Mass   15.99491
   Molecular Mass:   319.873820 amu
   Principal axes and moments of inertia in amu*Bohr^2:
                             1           2           3
    Eigenvalues --     5108.67214  5141.30374  8091.02886
          X              -0.48368     0.76500     0.42524
          Y               0.83769     0.26383     0.47819
          Z              -0.25363    -0.58751     0.76844
   Rotational Symmetry Number is   1
   The Molecule is an Asymmetric Top
   Translational Enthalpy:        0.889 kcal/mol
   Rotational Enthalpy:           0.889 kcal/mol
   Vibrational Enthalpy:         55.351 kcal/mol
   gas constant (RT):             0.592 kcal/mol
   Translational Entropy:        43.184  cal/mol.K
   Rotational Entropy:           33.718  cal/mol.K
   Vibrational Entropy:          37.118  cal/mol.K

   Total Enthalpy:               57.721 kcal/mol
   Total Entropy:               114.020  cal/mol.K
 Total job time:  3648.34s(wall), 52099.47s(cpu)
        *  Thank you very much for using Q-Chem.  Have a nice day.  *
