 Q-Chem 6.0, Q-Chem, Inc., Pleasanton, CA (2022)
 Q-Chem 6.0.2 for Intel X86 EM64T Linux

User input:
--------------------------------------------------------------
$molecule
-3 6
Fe    1.3113462    0.9453961   -0.4126389
O    0.8886780   -0.8926292   -0.3747010
C    0.1577526   -1.1643384    0.7240616
C   -0.0359930   -0.0442343    1.6558017
O   -0.4084084    1.3023847   -1.1083259
O   -0.6701340   -0.1488906    2.6931019
O   -0.3039246   -2.2759278    0.9248402
O    1.6500975    2.8023077   -0.4673874
C    0.5198995    3.4662677   -0.7738251
C   -0.6343374    2.6279939   -1.1165263
O    0.5695741    1.1077596    1.3144440
O   -1.7193390    3.0898709   -1.4301520
O    0.4763821    4.6856791   -0.7799310
O    2.0441936    0.7765605   -2.1446760
O    3.0290862    0.5958636    0.2896719
C    3.3664693    0.5381171   -2.0676054
C    3.9085891    0.4028214   -0.7108685
O    4.0526510    0.4122375   -3.0690541
O    5.0850405    0.1641375   -0.4904623
$end

$rem
BASIS  =  gen
DFT_D  =  D3_BJ
GUI  =  2
JOB_TYPE  =  Optimization
METHOD  =  B3LYP
SCF_CONVERGENCE  =  8
SOLVENT_METHOD  =  PCM
GEOM_OPT_MAX_CYCLES = 200
MEM_TOTAL  =  30000
$end

$pcm
THEORY  CPCM
$end

$solvent
DIELECTRIC  78.39
$end

$van_der_waals
26   2.44
$end

!----------------------------------------------------------------------
! Basis Set Exchange
! Basis set: cc-pVDZ
!----------------------------------------------------------------------

$rem
BASIS GEN
PURECART 11
$end

$basis
H     0
S   4   1.00
1.301000D+01           1.968500D-02
1.962000D+00           1.379770D-01
4.446000D-01           4.781480D-01
1.220000D-01           5.012400D-01
S   1   1.00
1.220000D-01           1.000000D+00
P   1   1.00
7.270000D-01           1.0000000
****
C     0
S   9   1.00
6.665000D+03           6.920000D-04
1.000000D+03           5.329000D-03
2.280000D+02           2.707700D-02
6.471000D+01           1.017180D-01
2.106000D+01           2.747400D-01
7.495000D+00           4.485640D-01
2.797000D+00           2.850740D-01
5.215000D-01           1.520400D-02
1.596000D-01          -3.191000D-03
S   9   1.00
6.665000D+03          -1.460000D-04
1.000000D+03          -1.154000D-03
2.280000D+02          -5.725000D-03
6.471000D+01          -2.331200D-02
2.106000D+01          -6.395500D-02
7.495000D+00          -1.499810D-01
2.797000D+00          -1.272620D-01
5.215000D-01           5.445290D-01
1.596000D-01           5.804960D-01
S   1   1.00
1.596000D-01           1.000000D+00
P   4   1.00
9.439000D+00           3.810900D-02
2.002000D+00           2.094800D-01
5.456000D-01           5.085570D-01
1.517000D-01           4.688420D-01
P   1   1.00
1.517000D-01           1.000000D+00
D   1   1.00
5.500000D-01           1.0000000
****
N     0
S   9   1.00
9.046000D+03           7.000000D-04
1.357000D+03           5.389000D-03
3.093000D+02           2.740600D-02
8.773000D+01           1.032070D-01
2.856000D+01           2.787230D-01
1.021000D+01           4.485400D-01
3.838000D+00           2.782380D-01
7.466000D-01           1.544000D-02
2.248000D-01          -2.864000D-03
S   9   1.00
9.046000D+03          -1.530000D-04
1.357000D+03          -1.208000D-03
3.093000D+02          -5.992000D-03
8.773000D+01          -2.454400D-02
2.856000D+01          -6.745900D-02
1.021000D+01          -1.580780D-01
3.838000D+00          -1.218310D-01
7.466000D-01           5.490030D-01
2.248000D-01           5.788150D-01
S   1   1.00
2.248000D-01           1.000000D+00
P   4   1.00
1.355000D+01           3.991900D-02
2.917000D+00           2.171690D-01
7.973000D-01           5.103190D-01
2.185000D-01           4.622140D-01
P   1   1.00
2.185000D-01           1.000000D+00
D   1   1.00
8.170000D-01           1.0000000
****
O     0
S   9   1.00
1.172000D+04           7.100000D-04
1.759000D+03           5.470000D-03
4.008000D+02           2.783700D-02
1.137000D+02           1.048000D-01
3.703000D+01           2.830620D-01
1.327000D+01           4.487190D-01
5.025000D+00           2.709520D-01
1.013000D+00           1.545800D-02
3.023000D-01          -2.585000D-03
S   9   1.00
1.172000D+04          -1.600000D-04
1.759000D+03          -1.263000D-03
4.008000D+02          -6.267000D-03
1.137000D+02          -2.571600D-02
3.703000D+01          -7.092400D-02
1.327000D+01          -1.654110D-01
5.025000D+00          -1.169550D-01
1.013000D+00           5.573680D-01
3.023000D-01           5.727590D-01
S   1   1.00
3.023000D-01           1.000000D+00
P   4   1.00
1.770000D+01           4.301800D-02
3.854000D+00           2.289130D-01
1.046000D+00           5.087280D-01
2.753000D-01           4.605310D-01
P   1   1.00
2.753000D-01           1.000000D+00
D   1   1.00
1.185000D+00           1.0000000
****
Fe     0
S   20   1.00
4.316265D+06           8.048803D-06
6.463424D+05           6.258306D-05
1.470897D+05           3.290239D-04
4.166152D+04           1.387355D-03
1.359077D+04           5.023256D-03
4.905750D+03           1.610140D-02
1.912746D+03           4.590034D-02
7.926043D+02           1.136154D-01
3.448065D+02           2.283869D-01
1.558999D+02           3.221159D-01
7.223091D+01           2.383661D-01
3.272506D+01           7.404667D-02
1.566762D+01           9.214197D-02
7.503483D+00           9.339790D-02
3.312223D+00           1.573965D-02
1.558471D+00          -4.186682D-04
6.839140D-01           5.376318D-05
1.467570D-01          -3.816654D-05
7.058300D-02           4.319603D-05
3.144900D-02          -3.401019D-06
S   20   1.00
4.316265D+06          -4.155954D-06
6.463424D+05          -3.231401D-05
1.470897D+05          -1.699525D-04
4.166152D+04          -7.171369D-04
1.359077D+04          -2.603625D-03
4.905750D+03          -8.399109D-03
1.912746D+03          -2.434109D-02
7.926043D+02          -6.251948D-02
3.448065D+02          -1.365929D-01
1.558999D+02          -2.312707D-01
7.223091D+01          -2.383734D-01
3.272506D+01           3.123837D-02
1.566762D+01           5.086818D-01
7.503483D+00           4.987695D-01
3.312223D+00           9.033552D-02
1.558471D+00          -6.005337D-03
6.839140D-01           2.312454D-04
1.467570D-01          -5.643680D-04
7.058300D-02           4.992260D-04
3.144900D-02          -1.015293D-04
S   20   1.00
4.316265D+06           9.532178D-07
6.463424D+05           7.414605D-06
1.470897D+05           3.898393D-05
4.166152D+04           1.647152D-04
1.359077D+04           5.985980D-04
4.905750D+03           1.942390D-03
1.912746D+03           5.687237D-03
7.926043D+02           1.501329D-02
3.448065D+02           3.452455D-02
1.558999D+02           6.495820D-02
7.223091D+01           7.716194D-02
3.272506D+01          -1.873411D-02
1.566762D+01          -3.009185D-01
7.503483D+00          -4.554661D-01
3.312223D+00           1.286463D-01
1.558471D+00           7.183316D-01
6.839140D-01           4.051743D-01
1.467570D-01           2.168227D-02
7.058300D-02          -8.343566D-03
3.144900D-02           3.658979D-03
S   20   1.00
4.316265D+06          -2.063008D-07
6.463424D+05          -1.604169D-06
1.470897D+05          -8.438437D-06
4.166152D+04          -3.563151D-05
1.359077D+04          -1.295998D-04
4.905750D+03          -4.201534D-04
1.912746D+03          -1.231954D-03
7.926043D+02          -3.248922D-03
3.448065D+02          -7.493717D-03
1.558999D+02          -1.410102D-02
7.223091D+01          -1.691600D-02
3.272506D+01           4.218996D-03
1.566762D+01           6.833810D-02
7.503483D+00           1.098201D-01
3.312223D+00          -4.009005D-02
1.558471D+00          -2.174739D-01
6.839140D-01          -2.465135D-01
1.467570D-01           2.731435D-01
7.058300D-02           5.748321D-01
3.144900D-02           3.012713D-01
S   20   1.00
4.316265D+06          -4.009367D-07
6.463424D+05          -3.189255D-06
1.470897D+05          -1.623079D-05
4.166152D+04          -7.157920D-05
1.359077D+04          -2.463958D-04
4.905750D+03          -8.544907D-04
1.912746D+03          -2.307593D-03
7.926043D+02          -6.728292D-03
3.448065D+02          -1.366165D-02
1.558999D+02          -3.062240D-02
7.223091D+01          -2.631137D-02
3.272506D+01          -9.760183D-03
1.566762D+01           1.801906D-01
7.503483D+00           1.529634D-01
3.312223D+00           5.505413D-02
1.558471D+00          -9.551364D-01
6.839140D-01           2.586813D-01
1.467570D-01           1.834049D+00
7.058300D-02          -9.333240D-01
3.144900D-02          -6.981605D-01
S   1   1.00
3.144900D-02           1.000000D+00
P   16   1.00
1.774569D+04           4.100000D-05
4.200721D+03           3.690000D-04
1.364429D+03           2.129000D-03
5.220806D+02           9.369000D-03
2.214595D+02           3.309700D-02
1.009096D+02           9.443100D-02
4.840115D+01           2.080770D-01
2.398536D+01           3.323330D-01
1.218250D+01           3.329870D-01
6.242298D+00           1.568430D-01
3.110944D+00           2.154900D-02
1.509958D+00          -2.095000D-03
7.108450D-01          -1.739000D-03
2.731900D-01          -3.000000D-04
1.042330D-01           2.900000D-05
3.829100D-02          -1.100000D-05
P   16   1.00
1.774569D+04          -1.500000D-05
4.200721D+03          -1.300000D-04
1.364429D+03          -7.510000D-04
5.220806D+02          -3.329000D-03
2.214595D+02          -1.191200D-02

   18   -2395.8505941846      9.84e-09  Convergence criterion met
 Total energy in the final basis set =    -2395.8505941846
   15   -2395.9007299777      4.08e-09  Convergence criterion met
 Total energy in the final basis set =    -2395.9007299777
   14   -2395.9237506266      7.90e-09  Convergence criterion met
 Total energy in the final basis set =    -2395.9237506266
   13   -2395.9271409386      8.82e-09  Convergence criterion met
 Total energy in the final basis set =    -2395.9271409386
   13   -2395.9312166896      7.41e-09  Convergence criterion met
 Total energy in the final basis set =    -2395.9312166896
   13   -2395.9308751266      7.51e-09  Convergence criterion met
 Total energy in the final basis set =    -2395.9308751266
   13   -2395.9315623136      7.52e-09  Convergence criterion met
 Total energy in the final basis set =    -2395.9315623136
   13   -2395.9316699453      7.31e-09  Convergence criterion met
   13   -2395.9325947319      3.59e-09  Convergence criterion met
 Total energy in the final basis set =    -2395.9325947319
   13   -2395.9326006941      3.31e-09  Convergence criterion met
 Total energy in the final basis set =    -2395.9326006941
   13   -2395.9326029300      3.32e-09  Convergence criterion met
 Total energy in the final basis set =    -2395.9326029300
   13   -2395.9326051410      3.46e-09  Convergence criterion met
 Total energy in the final basis set =    -2395.9326051410
   13   -2395.9326074650      3.36e-09  Convergence criterion met
 Total energy in the final basis set =    -2395.9326074650
   13   -2395.9326091559      3.13e-09  Convergence criterion met
 Total energy in the final basis set =    -2395.9326091559
   13   -2395.9326100998      2.90e-09  Convergence criterion met
 Total energy in the final basis set =    -2395.9326100998

                    Orbital Energies (a.u.)
 --------------------------------------------------------------

 Alpha MOs
 -- Occupied --
******** -30.1463 -25.9986 -25.9975 -25.9974 -19.1140 -19.1139 -19.1138
-19.1138 -19.1137 -19.1136 -19.0944 -19.0943 -19.0942 -19.0942 -19.0942
-19.0941 -10.2776 -10.2774 -10.2774 -10.2774 -10.2772 -10.2772  -3.6286
 -2.4034  -2.4014  -2.4013  -1.0582  -1.0555  -1.0554  -1.0251  -1.0248
 -1.0247  -0.9716  -0.9671  -0.9669  -0.9463  -0.9456  -0.9455  -0.6110
 -0.6076  -0.6076  -0.5137  -0.5135  -0.5070  -0.5008  -0.4765  -0.4763
 -0.4498  -0.4498  -0.4438  -0.4290  -0.4290  -0.4261  -0.4178  -0.4177
 -0.4106  -0.4103  -0.4051  -0.4050  -0.3782  -0.3781  -0.3705  -0.3704
 -0.3689  -0.3180  -0.3148  -0.3071  -0.3070  -0.2877  -0.2876  -0.2710
 -0.2682  -0.2681  -0.2641  -0.2629  -0.2627  -0.2450  -0.2279  -0.2255
 -0.2254  -0.2181  -0.2180

 Beta MOs
 -- Occupied --
******** -30.0521 -25.9198 -25.9192 -25.9192 -19.1102 -19.1102 -19.1101
-19.1100 -19.1100 -19.1099 -19.0938 -19.0938 -19.0937 -19.0937 -19.0937
-19.0936 -10.2776 -10.2775 -10.2774 -10.2774 -10.2773 -10.2773  -3.4096
 -2.1718  -2.1710  -2.1709  -1.0544  -1.0519  -1.0518  -1.0214  -1.0211
 -1.0210  -0.9670  -0.9622  -0.9621  -0.9409  -0.9400  -0.9399  -0.6087
 -0.6056  -0.6055  -0.4979  -0.4946  -0.4868  -0.4866  -0.4660  -0.4659
 -0.4333  -0.4333  -0.4311  -0.4258  -0.4257  -0.4241  -0.4083  -0.4054
 -0.4053  -0.3720  -0.3694  -0.3692  -0.3177  -0.3176  -0.3097  -0.3082
 -0.2925  -0.2924  -0.2848  -0.2847  -0.2659  -0.2653  -0.2591  -0.2588
 -0.2480  -0.2479  -0.2362  -0.2274  -0.2235  -0.2235

          Ground-State Mulliken Net Atomic Charges

     Atom                 Charge (a.u.)    Spin (a.u.)
  --------------------------------------------------------
      1 Fe                    0.583948       4.244390
      2 O                    -0.379587       0.106566
      3 C                     0.122450      -0.000272
      4 C                     0.122412      -0.000292
      5 O                    -0.380518       0.106394
      6 O                    -0.339462       0.019763
      7 O                    -0.339510       0.019779
      8 O                    -0.380604       0.106334
      9 C                     0.122495      -0.000239
     10 C                     0.122235      -0.000228
     11 O                    -0.379912       0.106659
     12 O                    -0.339225       0.019773
     13 O                    -0.339196       0.019812
     14 O                    -0.380084       0.106008
     15 O                    -0.380218       0.106613
     16 C                     0.122367      -0.000261
     17 C                     0.121982      -0.000248
     18 O                    -0.340029       0.019671
     19 O                    -0.339544       0.019775
  --------------------------------------------------------
  Sum of atomic charges =    -3.000000

                    Cartesian Multipole Moments
 -----------------------------------------------------------------
    Charge (ESU x 10^10)
               -14.4096
    Dipole Moment (Debye)
         X     -17.6861      Y     -13.9100      Z       5.5798
       Tot      23.1823
    Quadrupole Moments (Debye-Ang)
        XX    -215.9429     XY      -6.0582     YY    -205.5985
        XZ      23.8756     YZ      24.6617     ZZ    -175.0454

 Final energy is -2395.932610099810
	**  OPTIMIZATION CONVERGED  **

             Standard Nuclear Orientation (Angstroms)
    I     Atom           X                Y                Z
 ----------------------------------------------------------------
    1      Fe      1.2239054304     0.9736807134    -0.3849132596
    2      O       0.6062047962    -0.9646341401    -0.3173740823
    3      C       0.0978894413    -1.3682850825     0.8062741676
    4      C       0.0403080867    -0.2580996747     1.9075681689
    5      O      -0.4962686269     1.5656685347    -1.2970065278
    6      O      -0.4362865669    -0.5012671078     3.0147174273
    7      O      -0.3141771274    -2.5028221547     1.0409917329
    8      O       1.4322976841     2.9946460212    -0.2660168346
    9      C       0.4742322400     3.7022701587    -0.7813490249
   10      C      -0.6820487395     2.8461832987    -1.3978900075
   11      O       0.5284756898     0.8826007606     1.5272110755
   12      O      -1.6543943064     3.3913431587    -1.9170222307
   13      O       0.4264119695     4.9305666035    -0.8117546226
   14      O       2.1336600603     0.6699628552    -2.1837848414
   15      O       3.1423055191     0.6799124651     0.2262868593
   16      C       3.4105471569     0.4421150139    -2.1497695561
   17      C       4.0133602367     0.4410326698    -0.7053960599
   18      O       4.1300687642     0.2399275059    -3.1265622755
   19      O       5.2111315921     0.2265754003    -0.5284427087
 ----------------------------------------------------------------

 Total job time:  6451.71s(wall), 108723.49s(cpu)
        *  Thank you very much for using Q-Chem.  Have a nice day.  *
