 Q-Chem 6.0, Q-Chem, Inc., Pleasanton, CA (2022)
 Q-Chem 6.0.2 for Intel X86 EM64T Linux

User input:
--------------------------------------------------------------
$molecule
-2 6
C    2.7454702   -2.2219170    0.2805575
C    4.0072447   -2.6826375    0.6949292
C    5.1372095   -2.4927141   -0.1101764
C    5.0292393   -1.8472916   -1.3533205
C    3.7502179   -1.4482608   -1.8123703
C    2.6089358   -1.6255914   -1.0276506
H    4.0991384   -3.1548211    1.6769629
O    1.3867203   -1.2252351   -1.3675109
C    6.2070056   -1.4506844   -2.1740818
O    6.0863760   -1.0077386   -3.3292775
N    7.4361436   -1.5541475   -1.5766948
H    7.4512940   -1.7469053   -0.5823517
C    8.6214532   -0.8992794   -2.1111140
H    9.4576462   -1.6186152   -2.1414187
H    8.3844285   -0.6205757   -3.1467299
C    9.0365384    0.3404986   -1.3034998
H    9.9502049    0.7445446   -1.7718559
H    9.3273679    0.0360189   -0.2821823
C    7.9549797    1.4549078   -1.2159356
H    7.0999058    1.1846753   -1.8580602
H    8.3706558    2.3892222   -1.6257211
N    7.4254365    1.7740280    0.1142623
H    8.1968169    2.0721377    0.7161224
C    5.9910985    1.1158340    2.0391811
H    5.4776927    0.2263789    2.4464835
H    6.7339862    1.4226675    2.7972594
C    6.7132063    0.6772460    0.7632073
H    7.3675948   -0.1850560    1.0181180
H    5.9809172    0.2869120    0.0419720
C    4.9684627    2.2458370    1.8435530
H    4.3765800    2.3672711    2.7659597
H    5.4969717    3.1976292    1.6704623
C    4.0110197    1.9653775    0.6767552
H    3.8439295    0.8855605    0.5763524
H    4.4617257    2.3177307   -0.2661845
N    2.6878889    2.5641705    0.8191831
H    2.5932514    3.5561995    0.6291284
C    1.5503585    1.8160538    0.7390086
O    1.6580112    0.5542522    0.8072945
C    0.2911253    2.4993629    0.5787560
H    0.2424250    3.5716786    0.7710188
C   -2.1516927    2.5882509   -0.0078294
H   -2.7691522    2.1979489    0.8204210
H   -2.0157995    3.6671511    0.1323322
C   -2.8920834    2.3589695   -1.3201214
O   -3.0189168    3.2564972   -2.1615277
N   -3.3896632    1.1071347   -1.4772304
C   -3.8932860    0.6144626   -2.7543285
H   -3.0803159    0.4116952   -0.8011105
C   -5.3872824    0.2877411   -2.7358154
H   -3.3174098   -0.2866065   -3.0233487
H   -3.6824505    1.3911631   -3.5036197
C   -6.2800058    1.5013446   -2.4720495
H   -5.6493402   -0.1517533   -3.7160297
H   -5.5799648   -0.4918722   -1.9813377
C   -7.7768755    1.1471275   -2.4512367
H   -6.1065614    2.2642910   -3.2525263
H   -5.9927444    1.9647685   -1.5130088
H   -8.3685914    2.0788618   -2.4087724
H   -8.0361210    0.6538189   -3.4056491
C   -6.1327860   -1.7197139    0.6856560
C   -4.7315795   -1.5153957    1.1345525
O   -6.4022493   -2.0887430   -0.4771238
C   -4.3964637   -0.8717350    2.3380328
C   -3.6893512   -1.9382253    0.2714141
C   -3.0582407   -0.6504094    2.6835949
C   -2.3484165   -1.7258243    0.5925640
C   -2.0153467   -1.0577588    1.8321836
H   -2.8051352   -0.1270915    3.6096934
O   -1.3227811   -2.0737683   -0.1827722
C   -0.8170361    1.8457580    0.0655817
O   -0.8417292    0.6319679   -0.3633113
H    3.6716266   -0.9407928   -2.7754753
O    1.6562858   -2.2684560    1.0265740
H   -3.9488716   -2.4280384   -0.6686523
O   -0.7375268   -0.8489059    2.0721585
Fe    0.2786817   -0.9829811    0.3015982
N   -8.2398648    0.2798547   -1.3648552
H   -7.7034729   -0.5922501   -1.3758231
N   -7.1254460   -1.4832755    1.5892336
H   -6.8686053   -1.1568068    2.5123491
C   -8.5220998   -1.3434884    1.2084546
H   -8.6626981   -1.9122922    0.2798475
H   -9.1512347   -1.8078399    1.9835286
C   -8.9378243    0.1220747    1.0083721
H   -9.9997850    0.1391859    0.7078964
H   -8.8602157    0.6537341    1.9735674
C   -8.1064038    0.8739111   -0.0334300
H   -8.4709934    1.9143034   -0.0884218
H   -7.0546759    0.9356706    0.3169960
H   -5.1673939   -0.4975248    3.0148621
H    6.1031801   -2.8402913    0.2620190
$end

$rem
BASIS  =  gen
DFT_D  =  D3_BJ
GUI  =  2
JOB_TYPE  =  Optimization
METHOD  =  B3LYP
SCF_CONVERGENCE  =  8
SOLVENT_METHOD  =  PCM
GEOM_OPT_MAX_CYCLES = 200
$end

$pcm
THEORY  CPCM
$end

$solvent
DIELECTRIC  78.39
$end

$van_der_waals
26   2.44
$end

!----------------------------------------------------------------------
! Basis Set Exchange
! Basis set: cc-pVDZ
!----------------------------------------------------------------------

$rem
BASIS GEN
PURECART 11
$end

$basis
H     0
S   4   1.00
1.301000D+01           1.968500D-02
1.962000D+00           1.379770D-01
4.446000D-01           4.781480D-01
1.220000D-01           5.012400D-01
S   1   1.00
1.220000D-01           1.000000D+00
P   1   1.00
7.270000D-01           1.0000000
****
C     0
S   9   1.00
6.665000D+03           6.920000D-04
1.000000D+03           5.329000D-03
2.280000D+02           2.707700D-02
6.471000D+01           1.017180D-01
2.106000D+01           2.747400D-01
7.495000D+00           4.485640D-01
2.797000D+00           2.850740D-01
5.215000D-01           1.520400D-02
1.596000D-01          -3.191000D-03
S   9   1.00
6.665000D+03          -1.460000D-04
1.000000D+03          -1.154000D-03
2.280000D+02          -5.725000D-03
6.471000D+01          -2.331200D-02
2.106000D+01          -6.395500D-02
7.495000D+00          -1.499810D-01
2.797000D+00          -1.272620D-01
5.215000D-01           5.445290D-01
1.596000D-01           5.804960D-01
S   1   1.00
1.596000D-01           1.000000D+00
P   4   1.00
9.439000D+00           3.810900D-02
2.002000D+00           2.094800D-01
5.456000D-01           5.085570D-01
1.517000D-01           4.688420D-01
P   1   1.00
1.517000D-01           1.000000D+00
D   1   1.00
5.500000D-01           1.0000000
****
N     0
S   9   1.00
9.046000D+03           7.000000D-04
1.357000D+03           5.389000D-03
3.093000D+02           2.740600D-02
8.773000D+01           1.032070D-01
2.856000D+01           2.787230D-01
1.021000D+01           4.485400D-01
3.838000D+00           2.782380D-01
7.466000D-01           1.544000D-02
2.248000D-01          -2.864000D-03
S   9   1.00
9.046000D+03          -1.530000D-04
1.357000D+03          -1.208000D-03
3.093000D+02          -5.992000D-03
8.773000D+01          -2.454400D-02
2.856000D+01          -6.745900D-02
1.021000D+01          -1.580780D-01
3.838000D+00          -1.218310D-01
7.466000D-01           5.490030D-01
2.248000D-01           5.788150D-01
S   1   1.00
2.248000D-01           1.000000D+00
P   4   1.00
1.355000D+01           3.991900D-02
2.917000D+00           2.171690D-01
7.973000D-01           5.103190D-01
2.185000D-01           4.622140D-01
P   1   1.00
2.185000D-01           1.000000D+00
D   1   1.00
8.170000D-01           1.0000000
****
O     0
S   9   1.00
1.172000D+04           7.100000D-04
1.759000D+03           5.470000D-03
4.008000D+02           2.783700D-02
1.137000D+02           1.048000D-01
3.703000D+01           2.830620D-01
1.327000D+01           4.487190D-01
5.025000D+00           2.709520D-01
1.013000D+00           1.545800D-02
3.023000D-01          -2.585000D-03
S   9   1.00
1.172000D+04          -1.600000D-04
1.759000D+03          -1.263000D-03
4.008000D+02          -6.267000D-03
1.137000D+02          -2.571600D-02
3.703000D+01          -7.092400D-02
1.327000D+01          -1.654110D-01
5.025000D+00          -1.169550D-01
1.013000D+00           5.573680D-01
3.023000D-01           5.727590D-01
S   1   1.00
3.023000D-01           1.000000D+00
P   4   1.00
1.770000D+01           4.301800D-02
3.854000D+00           2.289130D-01
1.046000D+00           5.087280D-01
2.753000D-01           4.605310D-01
P   1   1.00
2.753000D-01           1.000000D+00
D   1   1.00
1.185000D+00           1.0000000
****
Fe     0
S   20   1.00
4.316265D+06           8.048803D-06
6.463424D+05           6.258306D-05
1.470897D+05           3.290239D-04
4.166152D+04           1.387355D-03
1.359077D+04           5.023256D-03
4.905750D+03           1.610140D-02
1.912746D+03           4.590034D-02
7.926043D+02           1.136154D-01
3.448065D+02           2.283869D-01
1.558999D+02           3.221159D-01
7.223091D+01           2.383661D-01
3.272506D+01           7.404667D-02
1.566762D+01           9.214197D-02
7.503483D+00           9.339790D-02
3.312223D+00           1.573965D-02
1.558471D+00          -4.186682D-04
6.839140D-01           5.376318D-05
1.467570D-01          -3.816654D-05
7.058300D-02           4.319603D-05
3.144900D-02          -3.401019D-06
S   20   1.00
4.316265D+06          -4.155954D-06
6.463424D+05          -3.231401D-05
1.470897D+05          -1.699525D-04
4.166152D+04          -7.171369D-04
1.359077D+04          -2.603625D-03
4.905750D+03          -8.399109D-03
1.912746D+03          -2.434109D-02
7.926043D+02          -6.251948D-02
3.448065D+02          -1.365929D-01
1.558999D+02          -2.312707D-01
7.223091D+01          -2.383734D-01
3.272506D+01           3.123837D-02
1.566762D+01           5.086818D-01
7.503483D+00           4.987695D-01
3.312223D+00           9.033552D-02
1.558471D+00          -6.005337D-03
6.839140D-01           2.312454D-04
1.467570D-01          -5.643680D-04
7.058300D-02           4.992260D-04
3.144900D-02          -1.015293D-04
S   20   1.00
4.316265D+06           9.532178D-07
6.463424D+05           7.414605D-06
1.470897D+05           3.898393D-05
4.166152D+04           1.647152D-04
1.359077D+04           5.985980D-04
4.905750D+03           1.942390D-03
1.912746D+03           5.687237D-03
7.926043D+02           1.501329D-02
3.448065D+02           3.452455D-02
1.558999D+02           6.495820D-02
7.223091D+01           7.716194D-02
3.272506D+01          -1.873411D-02
1.566762D+01          -3.009185D-01
7.503483D+00          -4.554661D-01
3.312223D+00           1.286463D-01

   21   -3553.5929768322      5.04e-09  Convergence criterion met
 Total energy in the final basis set =    -3553.5929768322
   16   -3553.5930243386      7.19e-09  Convergence criterion met
 Total energy in the final basis set =    -3553.5930243386
   16   -3553.5932814629      5.23e-09  Convergence criterion met
 Total energy in the final basis set =    -3553.5932814629
   16   -3553.5934056804      5.41e-09  Convergence criterion met
 Total energy in the final basis set =    -3553.5934056804
   16   -3553.5936852952      4.94e-09  Convergence criterion met
 Total energy in the final basis set =    -3553.5936852952
   16   -3553.5939921532      4.72e-09  Convergence criterion met
 Total energy in the final basis set =    -3553.5939921532
   16   -3553.5942479466      4.64e-09  Convergence criterion met
 Total energy in the final basis set =    -3553.5942479466
   16   -3553.5945197254      5.06e-09  Convergence criterion met
   16   -3553.6016115792      8.16e-09  Convergence criterion met
 Total energy in the final basis set =    -3553.6016115792
   16   -3553.6016179276      9.34e-09  Convergence criterion met
 Total energy in the final basis set =    -3553.6016179276
   16   -3553.6016203603      9.38e-09  Convergence criterion met
 Total energy in the final basis set =    -3553.6016203603
   16   -3553.6016220456      9.18e-09  Convergence criterion met
 Total energy in the final basis set =    -3553.6016220456
   16   -3553.6016239943      9.61e-09  Convergence criterion met
 Total energy in the final basis set =    -3553.6016239943
   16   -3553.6016226147      9.31e-09  Convergence criterion met
 Total energy in the final basis set =    -3553.6016226147
   16   -3553.6016235991      9.00e-09  Convergence criterion met
 Total energy in the final basis set =    -3553.6016235991

                    Orbital Energies (a.u.)
 --------------------------------------------------------------

 Alpha MOs
 -- Occupied --
******** -30.1201 -25.9737 -25.9716 -25.9704 -19.1100 -19.1095 -19.0975
-19.0974 -19.0970 -19.0958 -19.0951 -19.0930 -19.0919 -14.3411 -14.3397
-14.3373 -14.3312 -14.3036 -14.2948 -10.2778 -10.2760 -10.2759 -10.2734
-10.2459 -10.2139 -10.2120 -10.2087 -10.2086 -10.2069 -10.2068 -10.2067
-10.2055 -10.1962 -10.1950 -10.1945 -10.1937 -10.1860 -10.1761 -10.1759
-10.1750 -10.1745 -10.1741 -10.1732 -10.1730 -10.1722 -10.1690 -10.1669
-10.1640 -10.1629 -10.1607 -10.1599 -10.1547  -3.6021  -2.3792  -2.3761
 -2.3719  -1.0280  -1.0207  -1.0204  -1.0172  -1.0036  -0.9966  -0.9935
 -0.9575  -0.9562  -0.9109  -0.9104  -0.9087  -0.9049  -0.8910  -0.8871
 -0.8212  -0.8198  -0.7873  -0.7809  -0.7668  -0.7582  -0.7537  -0.7295
 -0.7229  -0.7199  -0.7084  -0.7025  -0.6964  -0.6873  -0.6641  -0.6562
 -0.6304  -0.6221  -0.6004  -0.5985  -0.5856  -0.5822  -0.5803  -0.5786
 -0.5773  -0.5719  -0.5612  -0.5592  -0.5574  -0.5554  -0.5419  -0.5084
 -0.5057  -0.4962  -0.4896  -0.4861  -0.4830  -0.4738  -0.4735  -0.4711
 -0.4688  -0.4649  -0.4638  -0.4616  -0.4568  -0.4557  -0.4474  -0.4458
 -0.4455  -0.4438  -0.4357  -0.4338  -0.4318  -0.4280  -0.4241  -0.4239
 -0.4162  -0.4146  -0.4120  -0.4094  -0.4078  -0.4065  -0.4056  -0.4031
 -0.3986  -0.3965  -0.3937  -0.3929  -0.3912  -0.3891  -0.3871  -0.3798
 -0.3792  -0.3738  -0.3728  -0.3700  -0.3689  -0.3663  -0.3650  -0.3628
 -0.3600  -0.3599  -0.3563  -0.3511  -0.3488  -0.3452  -0.3419  -0.3377
 -0.3361  -0.3331  -0.3324  -0.3322  -0.3287  -0.3268  -0.3220  -0.3159
 -0.3149  -0.3118  -0.3113  -0.3103  -0.2975  -0.2946  -0.2839  -0.2655
 -0.2603  -0.2578  -0.2522  -0.2484  -0.2481  -0.2450  -0.2444  -0.2411
 -0.2399  -0.2218  -0.2174  -0.2150  -0.2146  -0.2114  -0.2090  -0.2029
 -0.1687  -0.1673

 Beta MOs
 -- Occupied --
******** -30.0273 -25.8956 -25.8944 -25.8940 -19.1074 -19.1074 -19.0974
-19.0958 -19.0930 -19.0930 -19.0928 -19.0901 -19.0872 -14.3408 -14.3397
-14.3373 -14.3312 -14.3036 -14.2948 -10.2778 -10.2760 -10.2759 -10.2734
-10.2459 -10.2138 -10.2121 -10.2087 -10.2086 -10.2069 -10.2068 -10.2068
-10.2055 -10.1962 -10.1950 -10.1945 -10.1937 -10.1859 -10.1761 -10.1759
-10.1750 -10.1744 -10.1740 -10.1731 -10.1729 -10.1721 -10.1690 -10.1669
-10.1638 -10.1626 -10.1603 -10.1597 -10.1545  -3.3861  -2.1492  -2.1479
 -2.1472  -1.0249  -1.0207  -1.0200  -1.0172  -0.9989  -0.9889  -0.9855
 -0.9479  -0.9466  -0.9104  -0.9097  -0.9085  -0.9048  -0.8910  -0.8871
 -0.8201  -0.8187  -0.7871  -0.7808  -0.7661  -0.7580  -0.7534  -0.7291
 -0.7219  -0.7189  -0.7076  -0.7012  -0.6953  -0.6867  -0.6637  -0.6558
 -0.6302  -0.6220  -0.5996  -0.5977  -0.5841  -0.5815  -0.5789  -0.5777
 -0.5764  -0.5717  -0.5608  -0.5581  -0.5559  -0.5552  -0.5396  -0.5063
 -0.5031  -0.4902  -0.4881  -0.4840  -0.4824  -0.4726  -0.4706  -0.4683
 -0.4652  -0.4638  -0.4579  -0.4553  -0.4527  -0.4479  -0.4447  -0.4430
 -0.4424  -0.4378  -0.4334  -0.4299  -0.4261  -0.4238  -0.4216  -0.4190
 -0.4126  -0.4079  -0.4058  -0.4037  -0.4029  -0.4018  -0.3999  -0.3975
 -0.3948  -0.3913  -0.3890  -0.3869  -0.3853  -0.3798  -0.3723  -0.3711
 -0.3699  -0.3667  -0.3649  -0.3637  -0.3603  -0.3593  -0.3572  -0.3503
 -0.3471  -0.3445  -0.3428  -0.3374  -0.3364  -0.3324  -0.3322  -0.3289
 -0.3274  -0.3223  -0.3181  -0.3150  -0.3146  -0.3114  -0.3097  -0.2965
 -0.2939  -0.2891  -0.2755  -0.2690  -0.2587  -0.2529  -0.2517  -0.2487
 -0.2477  -0.2463  -0.2444  -0.2414  -0.2406  -0.2389  -0.2158  -0.2144
 -0.2115  -0.2090  -0.2020  -0.1714  -0.1678

          Ground-State Mulliken Net Atomic Charges

     Atom                 Charge (a.u.)    Spin (a.u.)
  --------------------------------------------------------
      1 C                     0.143319       0.000871
      2 C                    -0.034676       0.014853
      3 C                    -0.037603       0.002230
      4 C                    -0.034800       0.008719
      5 C                    -0.038326       0.016638
      6 C                     0.150433       0.005376
      7 H                    -0.049232      -0.000199
      8 O                    -0.462585       0.143051
      9 C                     0.161895       0.000089
     10 O                    -0.363289       0.000864
     11 N                    -0.150764       0.001530
     12 H                     0.112556      -0.000034
     13 C                     0.100624      -0.000081
     14 H                     0.014409       0.000082
     15 H                     0.018712       0.000005
     16 C                    -0.032376       0.000116
     17 H                     0.006152       0.000022
     18 H                     0.015553      -0.000005
     19 C                     0.067230      -0.000003
     20 H                     0.012659       0.000050
     21 H                     0.003657      -0.000001
     22 N                    -0.234874       0.000003
     23 H                     0.088028       0.000005
     24 C                     0.020042      -0.000011
     25 H                     0.000293       0.000007
     26 H                    -0.001782       0.000003
     27 C                     0.042961       0.000056
     28 H                     0.003285      -0.000006
     29 H                     0.028473       0.000181
     30 C                    -0.024948       0.000002
     31 H                     0.003065       0.000004
     32 H                    -0.002413       0.000016
     33 C                     0.087963      -0.000378
     34 H                     0.029361       0.000582
     35 H                     0.052328       0.000692
     36 N                    -0.145897       0.009361
     37 H                     0.114884       0.001000
     38 C                     0.245002       0.007967
     39 O                    -0.376924       0.051506
     40 C                    -0.111194       0.012111
     41 H                    -0.029208      -0.000364
     42 C                     0.085028       0.004683
     43 H                     0.060163      -0.000182
     44 H                     0.009854       0.001330
     45 C                     0.098119      -0.000249
     46 O                    -0.365378       0.000621
     47 N                    -0.138429       0.000429
     48 C                     0.104361       0.000056
     49 H                     0.140376       0.000980
     50 C                    -0.041999       0.000050
     51 H                     0.018927       0.000133
     52 H                     0.008451       0.000019
     53 C                    -0.013208       0.000002
     54 H                    -0.002645      -0.000002
     55 H                     0.027330       0.000026
     56 C                     0.081248      -0.000000
     57 H                    -0.010126       0.000001
     58 H                     0.008531      -0.000001
     59 H                     0.001614      -0.000001
     60 H                    -0.003819       0.000000
     61 C                     0.167417       0.000344
     62 C                    -0.036426       0.005191
     63 O                    -0.364596       0.000441
     64 C                    -0.035653       0.006434
     65 C                    -0.024454       0.021531
     66 C                    -0.037921       0.011084
     67 C                     0.115397       0.001641
     68 C                     0.146653       0.006360
     69 H                    -0.047445      -0.000027
     70 O                    -0.456908       0.154789
     71 C                     0.101258       0.001252
     72 O                    -0.420471       0.069139
     73 H                    -0.077828      -0.000190
     74 O                    -0.448974       0.134974
     75 H                    -0.056483      -0.000557
     76 O                    -0.453967       0.125602
     77 Fe                    0.534328       4.175356
     78 N                    -0.255618       0.000011
     79 H                     0.085029       0.000002
     80 N                    -0.144958       0.001332
     81 H                     0.113721       0.000022
     82 C                     0.091529      -0.000043
     83 H                     0.019048       0.000011
     84 H                     0.017722       0.000063
     85 C                    -0.000328       0.000102
     86 H                     0.001638       0.000024
     87 H                     0.006843      -0.000003
     88 C                     0.062262       0.000008
     89 H                     0.011046       0.000004
     90 H                     0.006271      -0.000012
     91 H                    -0.037881       0.000055
     92 H                    -0.040642       0.000257
  --------------------------------------------------------
  Sum of atomic charges =    -2.000000

                    Cartesian Multipole Moments
 -----------------------------------------------------------------
    Charge (ESU x 10^10)
                -9.6064
    Dipole Moment (Debye)
         X      10.1583      Y      10.5724      Z       5.4923
       Tot      15.6566
    Quadrupole Moments (Debye-Ang)
        XX    -337.0700     XY     -12.4442     YY    -343.3138
        XZ      -3.6606     YZ      19.1904     ZZ    -353.8867

 Final energy is -3553.601623599062
	**  OPTIMIZATION CONVERGED  **

             Standard Nuclear Orientation (Angstroms)
    I     Atom           X                Y                Z
 ----------------------------------------------------------------
    1      C       2.4405725599    -1.9814561338     0.4456620908
    2      C       3.7124607093    -2.5555825391     0.6139318435
    3      C       4.7494533155    -2.2760246083    -0.2842448486
    4      C       4.5365510048    -1.4198760546    -1.3776733691
    5      C       3.2518088910    -0.8590655464    -1.5720332979
    6      C       2.2062666238    -1.1150724130    -0.6844450652
    7      H       3.8816140989    -3.2174117353     1.4678212287
    8      O       0.9869957569    -0.5946489432    -0.7862129996
    9      C       5.6090401143    -1.0147804245    -2.3267675113
   10      O       5.3589548544    -0.3847355220    -3.3698823391
   11      N       6.8940110931    -1.3392963132    -1.9858389377
   12      H       7.0542384159    -1.7025820046    -1.0535396814
   13      C       8.0502800095    -0.7590057097    -2.6537332336
   14      H       8.7936970522    -1.5494918968    -2.8479886896
   15      H       7.6963330834    -0.3804950604    -3.6220926638
   16      C       8.6868232330     0.3680128494    -1.8288600849
   17      H       9.5859700526     0.7208803611    -2.3615192343
   18      H       9.0428247380    -0.0525259652    -0.8725837770
   19      C       7.7267610435     1.5547512036    -1.5401740809
   20      H       6.7397064913     1.3417510797    -1.9814368748
   21      H       8.1009755221     2.4581177607    -2.0484833855
   22      N       7.5097843184     1.9088773084    -0.1346927481
   23      H       8.4035084533     2.1852397657     0.2789894523
   24      C       6.4278115581     1.4057540754     2.0233655348
   25      H       6.2228804251     0.5699119643     2.7152070980
   26      H       7.2379322169     1.9984816581     2.4823164177
   27      C       6.9270073042     0.8462028559     0.6868082605
   28      H       7.6256791328     0.0050145006     0.8779404744
   29      H       6.0797700833     0.4174094757     0.1289556376
   30      C       5.1712182442     2.2719807999     1.8669737408
   31      H       5.0512873114     2.9511227751     2.7272762226
   32      H       5.3031348652     2.9041227764     0.9711787906
   33      C       3.9113334818     1.4223859838     1.7211252782
   34      H       3.6802962110     0.9193393147     2.6721723602
   35      H       4.0616214002     0.6231358629     0.9728264358
   36      N       2.7668151251     2.2418347932     1.3375511272
   37      H       2.9635394438     3.0658774188     0.7781603064
   38      C       1.5086312258     1.7326849589     1.2635598661
   39      O       1.2846289165     0.6078542157     1.8186292214
   40      C       0.5107276614     2.5135538201     0.5774888994
   41      H       0.7879550585     3.5009090068     0.2071632545
   42      C      -1.7962106563     2.9316444403    -0.3299865252
   43      H      -2.6181596604     3.1110209259     0.3866145257
   44      H      -1.3713937071     3.9032792437    -0.6094345194
   45      C      -2.4342159192     2.3354994279    -1.5929582235
   46      O      -2.6399502950     3.0450311002    -2.5862441512
   47      N      -2.7770167630     1.0309413794    -1.5151334940
   48      C      -3.3201540689     0.2833647146    -2.6400758449
   49      H      -2.4544737096     0.5315133090    -0.6823088959
   50      C      -4.8331105168     0.0489173135    -2.5736021111
   51      H      -2.8044242260    -0.6894205855    -2.6702657696
   52      H      -3.0652567616     0.8344053794    -3.5578580963
   53      C      -5.6862128841     1.3163125527    -2.5873940015
   54      H      -5.1033093769    -0.5814939252    -3.4418718049
   55      H      -5.0706445658    -0.5475501749    -1.6789772123
   56      C      -7.1925674999     1.0234432612    -2.7046374293
   57      H      -5.3925402335     1.9553710804    -3.4394262157
   58      H      -5.4875500701     1.9092776284    -1.6774239948
   59      H      -7.7339282812     1.9820685411    -2.8011364099
   60      H      -7.3691136867     0.4685184421    -3.6438862555
   61      C      -6.3615069332    -1.9266248758     0.7264856799
   62      C      -5.0006693554    -1.9028585365     1.3210056051
   63      O      -6.5597065896    -2.2990160156    -0.4469313986
   64      C      -4.7467213081    -1.6941572546     2.6879605576
   65      C      -3.9086188501    -2.0049592559     0.4294731535
   66      C      -3.4350668647    -1.5351200383     3.1538245676
   67      C      -2.5997482939    -1.8163478808     0.8661915219
   68      C      -2.3463402414    -1.5511806114     2.2614147562
   69      H      -3.2420814999    -1.3587135232     4.2157024697
   70      O      -1.5408522626    -1.8130374995     0.0588827827
   71      C      -0.7723854625     2.0462285159     0.3611734653
   72      O      -1.2048451853     0.8757782888     0.7028440900
   73      H       3.0912353932    -0.1905752547    -2.4196352316
   74      O       1.4239976541    -2.1758601173     1.2664974056
   75      H      -4.1006944446    -2.1747635469    -0.6297058952
   76      O      -1.0930379379    -1.3092469372     2.6025375180
   77      Fe     -0.0340602513    -0.8293981199     0.9358173903
   78      N      -7.8246704596     0.2650692237    -1.6228442045
   79      H      -7.3816508184    -0.6534840272    -1.5334218480
   80      N      -7.3883332476    -1.4784845165     1.5090974102
   81      H      -7.1351386006    -1.0033457200     2.3685850184
   82      C      -8.6886612599    -1.1386051693     0.9480223200
   83      H      -8.8079385946    -1.7300647696     0.0309893316
   84      H      -9.4752993579    -1.4476932621     1.6544948231
   85      C      -8.8307773645     0.3601708842     0.6430491970
   86      H      -9.8345051235     0.5240638283     0.2137236454
   87      H      -8.7849289175     0.9263949807     1.5904976488
   88      C      -7.7774425843     0.9230076440    -0.3165860201
   89      H      -7.9872172932     1.9957445104    -0.4686388054
   90      H      -6.7767655761     0.8723175995     0.1628453212
   91      H      -5.5654060376    -1.6586423234     3.4104908054
   92      H       5.7191339499    -2.7513250891    -0.1222698714
 ----------------------------------------------------------------

 Total job time:  179269.13s(wall), 2811389.59s(cpu)
        *  Thank you very much for using Q-Chem.  Have a nice day.  *
