 Q-Chem 6.0, Q-Chem, Inc., Pleasanton, CA (2022)
 Q-Chem 6.0.2 for Intel X86 EM64T Linux

User input:
--------------------------------------------------------------
$molecule
-2 6
C    2.9534187   -1.4517159   -2.0379671
C    4.1756664   -1.1274644   -2.6290354
C    5.3816090   -1.7367435   -2.1967173
C    5.3268323   -2.7278654   -1.2045512
C    4.1139895   -3.0645554   -0.5914859
C    2.9218399   -2.4194447   -0.9638341
H    4.1677546   -0.3691393   -3.4171370
O    1.7929176   -0.8956838   -2.3656586
C    6.7277713   -1.2536191   -2.6017270
O    7.7684381   -1.8819880   -2.3505785
N    6.7735305   -0.0205939   -3.2127893
H    5.8964517    0.4897762   -3.2247820
C    7.7478129    1.8084183   -1.8724223
H    6.8312136    2.3991677   -2.0509768
H    8.5880490    2.5241359   -1.8426242
C    7.5941919    1.0993109   -0.5252138
H    8.5846594    0.7323504   -0.1758752
H    6.9623752    0.2069633   -0.6498466
N    6.9144988    1.9356771    0.4629998
H    7.4882500    2.7598407    0.6610281
C    5.8723725    2.0598164    2.7115574
H    5.7082401    1.4504515    3.6178931
H    6.4801606    2.9262679    3.0270726
C    6.6724618    1.2204154    1.7150818
H    7.6127314    0.8766003    2.2002158
H    6.1098893    0.3038161    1.4643621
C    4.5250573    2.5741798    2.1887222
H    4.0085864    3.1052524    3.0074315
H    4.6937925    3.3051050    1.3806932
C    3.6084001    1.4733376    1.6611791
H    4.0378253    1.0132824    0.7553959
N    2.2942370    2.0212039    1.3495904
H    2.1540306    3.0184928    1.4703415
C    1.3542834    1.3398678    0.6433713
O    1.6120106    0.1348716    0.3243434
C    0.1158841    2.0109262    0.3557663
H   -0.1112485    2.9250608    0.9062467
C   -2.2159664    2.1385180   -0.5173928
H   -2.7600379    1.6484976    0.3083359
H   -2.1539984    3.2107530   -0.2874191
C   -2.9959585    1.9768039   -1.8117944
O   -2.9129949    2.8050875   -2.7270171
N   -3.7925716    0.8833284   -1.8669185
C   -4.7142620    0.6069312   -2.9588481
H   -3.7687573    0.2259552   -1.0915462
C   -6.1682897    0.5797761   -2.4758776
H   -4.4530733   -0.3616924   -3.4146200
H   -4.5580449    1.3944098   -3.7093134
C   -6.6509854    1.9183169   -1.9127526
H   -6.8118114    0.2709514   -3.3192201
H   -6.2665595   -0.2086602   -1.7128273
C   -7.9624641    1.8188299   -1.1132088
H   -6.7908321    2.6414573   -2.7364398
H   -5.8671395    2.3413371   -1.2629337
H   -8.2778852    2.8395356   -0.8287336
H   -8.7572673    1.4133938   -1.7641368
C   -5.8704877   -1.7533048    0.6143416
C   -4.4774264   -2.5256204   -1.2716669
O   -6.9151915   -1.9038864   -0.0556616
C   -4.5291376   -1.9953939    0.0260765
C   -3.2602287   -2.6568973   -1.9477930
C   -3.3149851   -1.6358276    0.6711123
C   -2.0583350   -2.2563419   -1.3400971
C   -2.0838077   -1.7843816    0.0278277
H   -3.2986516   -1.2044244    1.6748259
O   -0.8856808   -2.2612911   -1.9417707
C   -0.8198035    1.5169559   -0.5402940
O   -0.6378010    0.5430241   -1.3619125
H    4.0838934   -3.7971872    0.2201773
O    1.7542287   -2.6144671   -0.3817922
H   -3.2311151   -3.0305232   -2.9750141
O   -0.9138430   -1.4702056    0.5678990
Fe    0.4486069   -1.1608182   -0.8998073
N   -7.9351611    1.0012540    0.1045704
H   -7.7839408    0.0219314   -0.1514535
N   -5.9286045   -1.3330136    1.9090429
H   -5.0577626   -1.1599814    2.3961710
C   -7.1335478   -0.7497252    2.4802211
H   -7.9794094   -1.1430526    1.9022865
H   -7.2440465   -1.0984587    3.5187280
C   -7.1253794    0.7865026    2.4456653
H   -8.0938030    1.1392198    2.8412425
H   -6.3386101    1.1591756    3.1254124
C   -6.8925719    1.3885585    1.0572584
H   -6.9024340    2.4885152    1.1473432
H   -5.8719824    1.1178784    0.7143224
H   -5.4147672   -2.7956256   -1.7576599
H    6.2603221   -3.1870803   -0.8765787
H    3.5060272    0.6632894    2.4066878
C    7.9428212    0.8399273   -3.0519101
H    8.1093108    1.4115803   -3.9786983
H    8.8110832    0.1857513   -2.8992924
$end

$rem
BASIS  =  gen
DFT_D  =  D3_BJ
GUI  =  2
JOB_TYPE  =  Optimization
METHOD  =  B3LYP
SCF_CONVERGENCE  =  8
SOLVENT_METHOD  =  PCM
$end

$pcm
THEORY  CPCM
$end

$solvent
DIELECTRIC  78.39
$end

$van_der_waals
26   2.44
$end

!----------------------------------------------------------------------
! Basis Set Exchange
! Basis set: cc-pVDZ
!----------------------------------------------------------------------

$rem
BASIS GEN
PURECART 11
$end

$basis
H     0
S   4   1.00
1.301000D+01           1.968500D-02
1.962000D+00           1.379770D-01
4.446000D-01           4.781480D-01
1.220000D-01           5.012400D-01
S   1   1.00
1.220000D-01           1.000000D+00
P   1   1.00
7.270000D-01           1.0000000
****
C     0
S   9   1.00
6.665000D+03           6.920000D-04
1.000000D+03           5.329000D-03
2.280000D+02           2.707700D-02
6.471000D+01           1.017180D-01
2.106000D+01           2.747400D-01
7.495000D+00           4.485640D-01
2.797000D+00           2.850740D-01
5.215000D-01           1.520400D-02
1.596000D-01          -3.191000D-03
S   9   1.00
6.665000D+03          -1.460000D-04
1.000000D+03          -1.154000D-03
2.280000D+02          -5.725000D-03
6.471000D+01          -2.331200D-02
2.106000D+01          -6.395500D-02
7.495000D+00          -1.499810D-01
2.797000D+00          -1.272620D-01
5.215000D-01           5.445290D-01
1.596000D-01           5.804960D-01
S   1   1.00
1.596000D-01           1.000000D+00
P   4   1.00
9.439000D+00           3.810900D-02
2.002000D+00           2.094800D-01
5.456000D-01           5.085570D-01
1.517000D-01           4.688420D-01
P   1   1.00
1.517000D-01           1.000000D+00
D   1   1.00
5.500000D-01           1.0000000
****
N     0
S   9   1.00
9.046000D+03           7.000000D-04
1.357000D+03           5.389000D-03
3.093000D+02           2.740600D-02
8.773000D+01           1.032070D-01
2.856000D+01           2.787230D-01
1.021000D+01           4.485400D-01
3.838000D+00           2.782380D-01
7.466000D-01           1.544000D-02
2.248000D-01          -2.864000D-03
S   9   1.00
9.046000D+03          -1.530000D-04
1.357000D+03          -1.208000D-03
3.093000D+02          -5.992000D-03
8.773000D+01          -2.454400D-02
2.856000D+01          -6.745900D-02
1.021000D+01          -1.580780D-01
3.838000D+00          -1.218310D-01
7.466000D-01           5.490030D-01
2.248000D-01           5.788150D-01
S   1   1.00
2.248000D-01           1.000000D+00
P   4   1.00
1.355000D+01           3.991900D-02
2.917000D+00           2.171690D-01
7.973000D-01           5.103190D-01
2.185000D-01           4.622140D-01
P   1   1.00
2.185000D-01           1.000000D+00
D   1   1.00
8.170000D-01           1.0000000
****
O     0
S   9   1.00
1.172000D+04           7.100000D-04
1.759000D+03           5.470000D-03
4.008000D+02           2.783700D-02
1.137000D+02           1.048000D-01
3.703000D+01           2.830620D-01
1.327000D+01           4.487190D-01
5.025000D+00           2.709520D-01
1.013000D+00           1.545800D-02
3.023000D-01          -2.585000D-03
S   9   1.00
1.172000D+04          -1.600000D-04
1.759000D+03          -1.263000D-03
4.008000D+02          -6.267000D-03
1.137000D+02          -2.571600D-02
3.703000D+01          -7.092400D-02
1.327000D+01          -1.654110D-01
5.025000D+00          -1.169550D-01
1.013000D+00           5.573680D-01
3.023000D-01           5.727590D-01
S   1   1.00
3.023000D-01           1.000000D+00
P   4   1.00
1.770000D+01           4.301800D-02
3.854000D+00           2.289130D-01
1.046000D+00           5.087280D-01
2.753000D-01           4.605310D-01
P   1   1.00
2.753000D-01           1.000000D+00
D   1   1.00
1.185000D+00           1.0000000
****
Fe     0
S   20   1.00
4.316265D+06           8.048803D-06
6.463424D+05           6.258306D-05
1.470897D+05           3.290239D-04
4.166152D+04           1.387355D-03
1.359077D+04           5.023256D-03
4.905750D+03           1.610140D-02
1.912746D+03           4.590034D-02
7.926043D+02           1.136154D-01
3.448065D+02           2.283869D-01
1.558999D+02           3.221159D-01
7.223091D+01           2.383661D-01
3.272506D+01           7.404667D-02
1.566762D+01           9.214197D-02
7.503483D+00           9.339790D-02
3.312223D+00           1.573965D-02
1.558471D+00          -4.186682D-04
6.839140D-01           5.376318D-05
1.467570D-01          -3.816654D-05
7.058300D-02           4.319603D-05
3.144900D-02          -3.401019D-06
S   20   1.00
4.316265D+06          -4.155954D-06
6.463424D+05          -3.231401D-05
1.470897D+05          -1.699525D-04
4.166152D+04          -7.171369D-04
1.359077D+04          -2.603625D-03
4.905750D+03          -8.399109D-03
1.912746D+03          -2.434109D-02
7.926043D+02          -6.251948D-02
3.448065D+02          -1.365929D-01
1.558999D+02          -2.312707D-01
7.223091D+01          -2.383734D-01
3.272506D+01           3.123837D-02
1.566762D+01           5.086818D-01
7.503483D+00           4.987695D-01
3.312223D+00           9.033552D-02
1.558471D+00          -6.005337D-03
6.839140D-01           2.312454D-04
1.467570D-01          -5.643680D-04
7.058300D-02           4.992260D-04
3.144900D-02          -1.015293D-04
S   20   1.00
4.316265D+06           9.532178D-07
6.463424D+05           7.414605D-06
1.470897D+05           3.898393D-05
4.166152D+04           1.647152D-04
1.359077D+04           5.985980D-04
4.905750D+03           1.942390D-03
1.912746D+03           5.687237D-03
7.926043D+02           1.501329D-02
3.448065D+02           3.452455D-02
1.558999D+02           6.495820D-02
7.223091D+01           7.716194D-02
3.272506D+01          -1.873411D-02
1.566762D+01          -3.009185D-01
7.503483D+00          -4.554661D-01
3.312223D+00           1.286463D-01
1.558471D+00           7.183316D-01

   21   -3553.5975792261      5.45e-09  Convergence criterion met
 Total energy in the final basis set =    -3553.5975792261
   17   -3553.5976263725      3.08e-09  Convergence criterion met
 Total energy in the final basis set =    -3553.5976263725
   16   -3553.5977039665      8.02e-09  Convergence criterion met
 Total energy in the final basis set =    -3553.5977039665
   16   -3553.5977490350      8.63e-09  Convergence criterion met
 Total energy in the final basis set =    -3553.5977490350
   17   -3553.5977901513      3.02e-09  Convergence criterion met
 Total energy in the final basis set =    -3553.5977901513
   16   -3553.5978487959      8.56e-09  Convergence criterion met
 Total energy in the final basis set =    -3553.5978487959
   16   -3553.5978918901      8.53e-09  Convergence criterion met
 Total energy in the final basis set =    -3553.5978918901
   16   -3553.5979401201      8.34e-09  Convergence criterion met
   16   -3553.5985838530      8.62e-09  Convergence criterion met
 Total energy in the final basis set =    -3553.5985838530
   16   -3553.5986227398      8.41e-09  Convergence criterion met
 Total energy in the final basis set =    -3553.5986227398
   16   -3553.5986546695      8.28e-09  Convergence criterion met
 Total energy in the final basis set =    -3553.5986546695
   16   -3553.5986868910      8.25e-09  Convergence criterion met
 Total energy in the final basis set =    -3553.5986868910
   17   -3553.5987131010      3.06e-09  Convergence criterion met
 Total energy in the final basis set =    -3553.5987131010
   16   -3553.5987355376      9.36e-09  Convergence criterion met
 Total energy in the final basis set =    -3553.5987355376
   17   -3553.5987355279      2.96e-09  Convergence criterion met
 Total energy in the final basis set =    -3553.5987355279

                    Orbital Energies (a.u.)
 --------------------------------------------------------------

 Alpha MOs
 -- Occupied --
******** -30.1212 -25.9756 -25.9720 -25.9715 -19.1122 -19.1061 -19.0982
-19.0981 -19.0968 -19.0953 -19.0952 -19.0926 -19.0917 -14.3425 -14.3411
-14.3388 -14.3339 -14.3055 -14.2949 -10.2785 -10.2765 -10.2757 -10.2736
-10.2458 -10.2145 -10.2132 -10.2105 -10.2100 -10.2097 -10.2095 -10.2091
-10.2050 -10.1976 -10.1965 -10.1949 -10.1947 -10.1833 -10.1779 -10.1767
-10.1765 -10.1762 -10.1750 -10.1725 -10.1698 -10.1697 -10.1689 -10.1680
-10.1670 -10.1650 -10.1629 -10.1623 -10.1499  -3.6034  -2.3820  -2.3757
 -2.3732  -1.0282  -1.0209  -1.0203  -1.0190  -1.0016  -0.9965  -0.9940
 -0.9579  -0.9577  -0.9127  -0.9111  -0.9096  -0.9085  -0.8950  -0.8874
 -0.8220  -0.8198  -0.7885  -0.7812  -0.7672  -0.7604  -0.7541  -0.7304
 -0.7234  -0.7195  -0.7066  -0.7013  -0.6984  -0.6875  -0.6670  -0.6591
 -0.6304  -0.6213  -0.6018  -0.5986  -0.5879  -0.5868  -0.5847  -0.5753
 -0.5740  -0.5706  -0.5660  -0.5591  -0.5545  -0.5510  -0.5405  -0.5117
 -0.5058  -0.4968  -0.4902  -0.4858  -0.4796  -0.4778  -0.4744  -0.4719
 -0.4710  -0.4650  -0.4634  -0.4597  -0.4560  -0.4557  -0.4488  -0.4472
 -0.4432  -0.4425  -0.4418  -0.4407  -0.4316  -0.4299  -0.4258  -0.4221
 -0.4189  -0.4131  -0.4116  -0.4107  -0.4103  -0.4073  -0.4051  -0.4037
 -0.4016  -0.3974  -0.3965  -0.3940  -0.3933  -0.3910  -0.3873  -0.3840
 -0.3814  -0.3777  -0.3745  -0.3702  -0.3692  -0.3669  -0.3640  -0.3639
 -0.3591  -0.3561  -0.3534  -0.3516  -0.3455  -0.3443  -0.3431  -0.3414
 -0.3377  -0.3336  -0.3327  -0.3296  -0.3275  -0.3256  -0.3228  -0.3181
 -0.3139  -0.3137  -0.3123  -0.3102  -0.2955  -0.2940  -0.2821  -0.2669
 -0.2619  -0.2554  -0.2526  -0.2509  -0.2497  -0.2473  -0.2440  -0.2418
 -0.2404  -0.2213  -0.2203  -0.2197  -0.2146  -0.2120  -0.2098  -0.1969
 -0.1686  -0.1675

 Beta MOs
 -- Occupied --
******** -30.0282 -25.8970 -25.8949 -25.8948 -19.1097 -19.1034 -19.0967
-19.0953 -19.0951 -19.0938 -19.0936 -19.0880 -19.0874 -14.3423 -14.3411
-14.3388 -14.3339 -14.3055 -14.2949 -10.2785 -10.2765 -10.2757 -10.2736
-10.2459 -10.2145 -10.2132 -10.2105 -10.2100 -10.2097 -10.2095 -10.2091
-10.2050 -10.1976 -10.1965 -10.1949 -10.1947 -10.1832 -10.1779 -10.1767
-10.1765 -10.1762 -10.1749 -10.1724 -10.1698 -10.1697 -10.1689 -10.1678
-10.1670 -10.1647 -10.1626 -10.1621 -10.1496  -3.3867  -2.1504  -2.1482
 -2.1474  -1.0246  -1.0206  -1.0202  -1.0189  -0.9959  -0.9893  -0.9866
 -0.9488  -0.9482  -0.9114  -0.9110  -0.9096  -0.9085  -0.8950  -0.8874
 -0.8209  -0.8186  -0.7883  -0.7811  -0.7667  -0.7603  -0.7537  -0.7300
 -0.7225  -0.7186  -0.7056  -0.6998  -0.6972  -0.6870  -0.6667  -0.6588
 -0.6302  -0.6212  -0.6009  -0.5977  -0.5870  -0.5859  -0.5835  -0.5745
 -0.5733  -0.5701  -0.5658  -0.5580  -0.5536  -0.5492  -0.5387  -0.5086
 -0.5040  -0.4915  -0.4861  -0.4847  -0.4782  -0.4767  -0.4716  -0.4695
 -0.4686  -0.4629  -0.4576  -0.4558  -0.4511  -0.4504  -0.4454  -0.4445
 -0.4419  -0.4401  -0.4361  -0.4304  -0.4268  -0.4254  -0.4236  -0.4198
 -0.4111  -0.4096  -0.4087  -0.4057  -0.4047  -0.3999  -0.3991  -0.3963
 -0.3951  -0.3934  -0.3928  -0.3876  -0.3853  -0.3830  -0.3808  -0.3750
 -0.3719  -0.3705  -0.3655  -0.3602  -0.3593  -0.3564  -0.3538  -0.3465
 -0.3457  -0.3451  -0.3427  -0.3419  -0.3366  -0.3336  -0.3329  -0.3277
 -0.3257  -0.3230  -0.3187  -0.3163  -0.3135  -0.3115  -0.3092  -0.2950
 -0.2935  -0.2860  -0.2761  -0.2670  -0.2594  -0.2565  -0.2547  -0.2500
 -0.2484  -0.2475  -0.2446  -0.2427  -0.2395  -0.2387  -0.2202  -0.2149
 -0.2111  -0.2097  -0.1991  -0.1700  -0.1688

          Ground-State Mulliken Net Atomic Charges

     Atom                 Charge (a.u.)    Spin (a.u.)
  --------------------------------------------------------
      1 C                     0.134142       0.004846
      2 C                    -0.075047       0.018040
      3 C                    -0.037945       0.009593
      4 C                     0.014395       0.001913
      5 C                    -0.037775       0.015447
      6 C                     0.135611       0.001284
      7 H                    -0.049148      -0.000154
      8 O                    -0.462155       0.140346
      9 C                     0.127025      -0.000053
     10 O                    -0.351725       0.002835
     11 N                    -0.153437       0.000452
     12 H                     0.110748      -0.000047
     13 C                    -0.025636       0.000026
     14 H                     0.006156      -0.000001
     15 H                     0.012557       0.000028
     16 C                     0.072657       0.000046
     17 H                    -0.009602      -0.000003
     18 H                     0.029746      -0.000039
     19 N                    -0.242278       0.000002
     20 H                     0.091175       0.000003
     21 C                     0.002229       0.000010
     22 H                     0.005013       0.000001
     23 H                     0.003590      -0.000002
     24 C                     0.069961       0.000008
     25 H                    -0.007754       0.000001
     26 H                     0.021270      -0.000001
     27 C                    -0.022732       0.000141
     28 H                     0.007879       0.000013
     29 H                    -0.005160      -0.000002
     30 C                     0.104442       0.000086
     31 H                     0.042199       0.000135
     32 N                    -0.140803       0.006376
     33 H                     0.111310       0.001068
     34 C                     0.239200       0.003629
     35 O                    -0.372525       0.062420
     36 C                    -0.119481       0.019411
     37 H                    -0.030947      -0.000623
     38 C                     0.052932       0.006617
     39 H                     0.054794       0.000189
     40 H                     0.027943      -0.000137
     41 C                     0.093985       0.000136
     42 O                    -0.361623      -0.000013
     43 N                    -0.130217       0.000017
     44 C                     0.111455      -0.000002
     45 H                     0.136591      -0.000098
     46 C                    -0.039682       0.000033
     47 H                     0.017921      -0.000059
     48 H                     0.009332      -0.000002
     49 C                    -0.022195       0.000016
     50 H                     0.001334       0.000005
     51 H                     0.014973       0.000016
     52 C                     0.083310      -0.000005
     53 H                    -0.005853      -0.000000
     54 H                     0.009133       0.000013
     55 H                     0.001594       0.000004
     56 H                    -0.003417       0.000000
     57 C                     0.176175      -0.000057
     58 C                     0.021369       0.001262
     59 O                    -0.367881       0.002335
     60 C                    -0.045303       0.009449
     61 C                    -0.025052       0.015026
     62 C                    -0.090255       0.016188
     63 C                     0.136864       0.000676
     64 C                     0.132771       0.004998
     65 H                    -0.054349      -0.000131
     66 O                    -0.441657       0.131899
     67 C                     0.120776      -0.001190
     68 O                    -0.392448       0.068950
     69 H                    -0.049023      -0.000274
     70 O                    -0.445098       0.138766
     71 H                    -0.046470      -0.000243
     72 O                    -0.458390       0.130174
     73 Fe                    0.526800       4.186627
     74 N                    -0.255064       0.000038
     75 H                     0.084237       0.000040
     76 N                    -0.134789       0.000657
     77 H                     0.112241      -0.000021
     78 C                     0.092052      -0.000040
     79 H                     0.020272      -0.000006
     80 H                     0.018871       0.000019
     81 C                     0.005764       0.000068
     82 H                     0.002229       0.000025
     83 H                     0.006562      -0.000002
     84 C                     0.045429       0.000011
     85 H                     0.011095       0.000006
     86 H                     0.014360      -0.000021
     87 H                    -0.059601       0.000281
     88 H                    -0.063847       0.000236
     89 H                     0.023411       0.000278
     90 C                     0.096243      -0.000022
     91 H                     0.015268       0.000039
     92 H                     0.016974      -0.000010
  --------------------------------------------------------
  Sum of atomic charges =    -2.000000

                    Cartesian Multipole Moments
 -----------------------------------------------------------------
    Charge (ESU x 10^10)
                -9.6064
    Dipole Moment (Debye)
         X      -0.9884      Y      17.7654      Z      19.0766
       Tot      26.0864
    Quadrupole Moments (Debye-Ang)
        XX    -457.3964     XY      46.8264     YY    -353.5936
        XZ      16.4852     YZ      -3.4805     ZZ    -326.6690

 Final energy is -3553.598735527853
	**  OPTIMIZATION CONVERGED  **

             Standard Nuclear Orientation (Angstroms)
    I     Atom           X                Y                Z
 ----------------------------------------------------------------
    1      C       2.9849263309    -1.4088744948    -2.0080461098
    2      C       4.2031120901    -1.1190023160    -2.6256704089
    3      C       5.3979761079    -1.7721769935    -2.2299254351
    4      C       5.3358523978    -2.7688273682    -1.2435267878
    5      C       4.1283878261    -3.0705049493    -0.6038098821
    6      C       2.9496606428    -2.3820707892    -0.9403402548
    7      H       4.1973956971    -0.3627216623    -3.4157646991
    8      O       1.8354742311    -0.8146533255    -2.3050773853
    9      C       6.7501163455    -1.3365168058    -2.6698190765
   10      O       7.7747264685    -1.9930876903    -2.4275872107
   11      N       6.8245728314    -0.1120782299    -3.2993000132
   12      H       5.9583530311     0.4175168050    -3.2975995010
   13      C       7.8177370270     1.7132626309    -1.9604700948
   14      H       6.9633750107     2.3757464373    -2.1894957606
   15      H       8.7104393270     2.3585235550    -1.8823779023
   16      C       7.5363857512     1.0267830991    -0.6228593178
   17      H       8.4517776146     0.5017456180    -0.2688822928
   18      H       6.7722543802     0.2479852684    -0.7681951787
   19      N       6.9889281993     1.9539621176     0.3645913921
   20      H       7.6807409335     2.6815967156     0.5624935640
   21      C       5.8807792450     2.2222284407     2.5640090330
   22      H       5.7616744376     1.7197200648     3.5402641319
   23      H       6.5001576326     3.1169994155     2.7531132366
   24      C       6.6436492047     1.2884632919     1.6215929345
   25      H       7.5357925552     0.8810713825     2.1459297138
   26      H       6.0158994744     0.4157926374     1.3695718919
   27      C       4.5097550566     2.6597235874     2.0365817180
   28      H       4.1301705368     3.4875364001     2.6612145801
   29      H       4.6205679313     3.0476430402     1.0111602660
   30      C       3.4725931615     1.5334808439     2.0391618855
   31      H       3.7568151987     0.7274575408     1.3500673916
   32      N       2.1727466195     2.0283464959     1.6150539476
   33      H       1.8708478499     2.9232004190     1.9850256110
   34      C       1.2916279047     1.3462242318     0.8373005838
   35      O       1.6298403921     0.1996472319     0.3977027328
   36      C       0.0244387162     1.9709362425     0.5730045988
   37      H      -0.2592767739     2.8332611979     1.1784883833
   38      C      -2.2589725260     2.1231389706    -0.4049516800
   39      H      -2.8206417003     1.5973149152     0.3854840390
   40      H      -2.2213411128     3.1874058316    -0.1348148106
   41      C      -2.9965621016     2.0007431088    -1.7275941887
   42      O      -2.8893946945     2.8594526101    -2.6121688190
   43      N      -3.7897610120     0.9091299674    -1.8410771962
   44      C      -4.6844248586     0.6698050090    -2.9636102281
   45      H      -3.7930809454     0.2291309268    -1.0851068282
   46      C      -6.1481660868     0.6224153321    -2.5124948778
   47      H      -4.4109598272    -0.2808820551    -3.4487952532
   48      H      -4.5137342749     1.4850033688    -3.6804574912
   49      C      -6.6481480864     1.9417822920    -1.9184015539
   50      H      -6.7747026282     0.3354888708    -3.3758279451
   51      H      -6.2562430635    -0.1864907759    -1.7724187784
   52      C      -7.9630710161     1.8076778621    -1.1299524798
   53      H      -6.7883439021     2.6859823173    -2.7228636415
   54      H      -5.8734391001     2.3548650095    -1.2514695900
   55      H      -8.2945301170     2.8179515225    -0.8269753975
   56      H      -8.7481599976     1.4053250488    -1.7946481112
   57      C      -5.8483295054    -1.7733099194     0.5525907756
   58      C      -4.4220506457    -2.4812248211    -1.3341349774
   59      O      -6.8819680516    -1.9138797875    -0.1364020887
   60      C      -4.4967858562    -1.9873325150    -0.0224982266
   61      C      -3.1946217039    -2.5853704915    -1.9943387289
   62      C      -3.2948716234    -1.6405661691     0.6510520114
   63      C      -2.0043667542    -2.1917364149    -1.3580196755
   64      C      -2.0536209686    -1.7612458899     0.0214922755
   65      H      -3.2961397971    -1.2386736364     1.6671386096
   66      O      -0.8249283609    -2.1689771671    -1.9440060433
   67      C      -0.8505228747     1.5272389890    -0.4069134422
   68      O      -0.6063952809     0.6214441334    -1.2885249996
   69      H       4.0903917790    -3.8156055422     0.1961070472
   70      O       1.7901630021    -2.5517661971    -0.3332789490
   71      H      -3.1455359190    -2.9287585429    -3.0313291807
   72      O      -0.8934362171    -1.4533167137     0.5885859212
   73      Fe      0.4902030125    -1.0954218394    -0.8419515970
   74      N      -7.9324630634     0.9648270677     0.0695833154
   75      H      -7.7696340307    -0.0081524690    -0.2031831464
   76      N      -5.9282769730    -1.3899742951     1.8579389484
   77      H      -5.0651029909    -1.2215309256     2.3603539003
   78      C      -7.1421821764    -0.8220690045     2.4256656112
   79      H      -7.9821553599    -1.2130414200     1.8376605260
   80      H      -7.2573864217    -1.1844374930     3.4589048488
   81      C      -7.1436833178     0.7151066004     2.4143978249
   82      H      -8.1167198801     1.0564604698     2.8084699329
   83      H      -6.3645034112     1.0804557263     3.1068123732
   84      C      -6.9031371496     1.3441765346     1.0394105411
   85      H      -6.9281406530     2.4420198601     1.1510757134
   86      H      -5.8756776701     1.0929261478     0.7020811194
   87      H      -5.3502188476    -2.7451899676    -1.8405996800
   88      H       6.2616385957    -3.2610074764    -0.9434031639
   89      H       3.4084083278     1.0921166428     3.0528597541
   90      C       8.0105664437     0.7242201871    -3.1217771087
   91      H       8.2189478927     1.2754753641    -4.0519889753
   92      H       8.8548057150     0.0479015565    -2.9320507199
 ----------------------------------------------------------------

 Total job time:  115291.07s(wall), 1619592.81s(cpu)
        *  Thank you very much for using Q-Chem.  Have a nice day.  *
