 Q-Chem 6.0, Q-Chem, Inc., Pleasanton, CA (2022)
 Q-Chem 6.0.2 for Intel X86 EM64T Linux

User input:
--------------------------------------------------------------
$molecule
-2 6
C    3.0978882   -1.5176615   -1.5753844
C    4.4412249   -1.8594400   -1.3094894
C    5.4286716   -1.6624184   -2.3174246
C    5.0058290   -1.2412930   -3.5948686
C    3.6565450   -0.9567201   -3.8570222
C    2.7185211   -1.0449520   -2.8263791
H    4.7081474   -2.1487590   -0.3013573
O    1.4339626   -0.6311766   -2.9476190
C    6.9030515   -1.6765792   -2.0043842
O    7.6510400   -1.0114972   -2.7097996
N    7.3687334   -2.2002146   -0.8375122
H    6.7679596   -2.8263171   -0.2864983
C    8.5732095   -1.7201608   -0.1690043
H    9.2377350   -2.5714538    0.0907520
H    9.1653081   -0.9958011   -0.7784592
C    8.0677195   -1.0073116    1.1031077
H    8.8874102   -0.7526905    1.8084542
H    7.3837385   -1.7122505    1.6252885
C    7.3182740    0.2891858    0.7171005
H    6.7173789    0.1695629   -0.2048400
H    8.0772338    1.0609382    0.4688014
N    6.4417245    0.7889323    1.7830689
H    6.8547191    0.6555707    2.7352329
C    4.1052243    1.1551627    2.5027900
H    3.0619710    0.7777934    2.4242106
H    4.4144410    1.0954217    3.5683099
C    5.0642945    0.2618746    1.6969698
H    5.0263152   -0.7845337    2.0707256
H    4.7075960    0.2493404    0.6462795
C    4.1785440    2.6337664    2.0661726
H    3.6224896    3.2697561    2.7889124
H    5.2406187    2.9521519    2.1180892
C    3.6526463    2.9211669    0.6478845
H    4.0631859    2.2198334   -0.1041978
H    4.0005521    3.9372298    0.3641644
N    2.2086076    2.9734442    0.6218123
H    1.7629349    3.7004433    1.2052070
C    1.3853016    2.1874447   -0.2373139
O    1.8831045    1.1018542   -0.8860330
C    0.1010792    2.5685700   -0.4009507
H   -0.2332299    3.4702723    0.1079363
C   -2.1181281    2.7576136   -1.6320509
H   -2.6578840    2.9719159   -0.6833295
H   -1.7736020    3.7305965   -2.0481075
C   -3.1104200    2.1577514   -2.5989939
O   -3.3490160    2.7574991   -3.6384608
N   -3.7672741    1.0027314   -2.3028168
C   -4.7802868    0.4194820   -3.1720439
H   -3.5478439    0.5198351   -1.4196724
C   -6.1046118    0.2284424   -2.4213358
H   -4.4253368   -0.5773066   -3.5090514
H   -4.9617922    1.0386374   -4.0775470
C   -6.6895883    1.5460629   -1.8901283
H   -6.8390632   -0.2559773   -3.1016323
H   -5.9080160   -0.4512760   -1.5761035
C   -8.0295366    1.3548595   -1.1471587
H   -6.8705347    2.2329162   -2.7460597
H   -5.9611263    2.0343635   -1.2104104
H   -8.3876226    2.3441975   -0.7886085
H   -8.7894204    0.9756054   -1.8649296
C   -5.1519544   -2.0299114    0.8858989
C   -3.7044400   -1.6498901    0.7583991
O   -5.7795183   -2.3869957   -0.1000809
C   -3.1913553   -0.7587674    1.7335640
C   -2.8554423   -2.0265065   -0.3331840
C   -1.9176331   -0.2642088    1.6648011
C   -1.5322840   -1.5032494   -0.3883700
C   -1.1141662   -0.6251922    0.6192336
H   -1.5673430    0.4358676    2.4114401
O   -0.5996400   -1.7484318   -1.3645051
C   -0.8816884    1.9316690   -1.3093388
O   -0.7005259    0.8075711   -1.7731536
H    3.3673914   -0.5945513   -4.8325804
O    2.1265537   -1.5159796   -0.6367516
H   -3.2220388   -2.6768409   -1.1194616
O    0.0981580   -0.1004051    0.5176822
Fe    0.7197491   -0.3641068   -1.2057239
N   -7.9758448    0.4181008   -0.0128098
H   -7.8074633   -0.5528860   -0.3565006
N   -5.7924701   -1.8144891    2.0775968
H   -5.2594633   -1.6055298    2.9272269
C   -7.1989004   -1.5282662    2.2177019
H   -7.8139105   -1.9329714    1.3913836
H   -7.5554792   -1.9902370    3.1648484
C   -7.3355188    0.0133726    2.3373301
H   -8.3652227    0.2833702    2.6451400
H   -6.6422375    0.3744229    3.1341236
C   -7.0076225    0.7745589    1.0337982
H   -7.0697550    1.8643629    1.2493429
H   -5.9684883    0.5623420    0.6973229
H   -3.7600528   -0.3609912    2.5531253
H    5.7339649   -1.0789220   -4.3793891
$end

$rem
BASIS  =  gen
DFT_D  =  D3_BJ
GUI  =  2
JOB_TYPE  =  Optimization
METHOD  =  B3LYP
SCF_CONVERGENCE  =  8
SOLVENT_METHOD  =  PCM
GEOM_OPT_MAX_CYCLES = 200
$end

$pcm
THEORY  CPCM
$end

$solvent
DIELECTRIC  78.39
$end

$van_der_waals
26   2.44
$end

!----------------------------------------------------------------------
! Basis Set Exchange
! Basis set: cc-pVDZ
!----------------------------------------------------------------------

$rem
BASIS GEN
PURECART 11
$end

$basis
H     0
S   4   1.00
1.301000D+01           1.968500D-02
1.962000D+00           1.379770D-01
4.446000D-01           4.781480D-01
1.220000D-01           5.012400D-01
S   1   1.00
1.220000D-01           1.000000D+00
P   1   1.00
7.270000D-01           1.0000000
****
C     0
S   9   1.00
6.665000D+03           6.920000D-04
1.000000D+03           5.329000D-03
2.280000D+02           2.707700D-02
6.471000D+01           1.017180D-01
2.106000D+01           2.747400D-01
7.495000D+00           4.485640D-01
2.797000D+00           2.850740D-01
5.215000D-01           1.520400D-02
1.596000D-01          -3.191000D-03
S   9   1.00
6.665000D+03          -1.460000D-04
1.000000D+03          -1.154000D-03
2.280000D+02          -5.725000D-03
6.471000D+01          -2.331200D-02
2.106000D+01          -6.395500D-02
7.495000D+00          -1.499810D-01
2.797000D+00          -1.272620D-01
5.215000D-01           5.445290D-01
1.596000D-01           5.804960D-01
S   1   1.00
1.596000D-01           1.000000D+00
P   4   1.00
9.439000D+00           3.810900D-02
2.002000D+00           2.094800D-01
5.456000D-01           5.085570D-01
1.517000D-01           4.688420D-01
P   1   1.00
1.517000D-01           1.000000D+00
D   1   1.00
5.500000D-01           1.0000000
****
N     0
S   9   1.00
9.046000D+03           7.000000D-04
1.357000D+03           5.389000D-03
3.093000D+02           2.740600D-02
8.773000D+01           1.032070D-01
2.856000D+01           2.787230D-01
1.021000D+01           4.485400D-01
3.838000D+00           2.782380D-01
7.466000D-01           1.544000D-02
2.248000D-01          -2.864000D-03
S   9   1.00
9.046000D+03          -1.530000D-04
1.357000D+03          -1.208000D-03
3.093000D+02          -5.992000D-03
8.773000D+01          -2.454400D-02
2.856000D+01          -6.745900D-02
1.021000D+01          -1.580780D-01
3.838000D+00          -1.218310D-01
7.466000D-01           5.490030D-01
2.248000D-01           5.788150D-01
S   1   1.00
2.248000D-01           1.000000D+00
P   4   1.00
1.355000D+01           3.991900D-02
2.917000D+00           2.171690D-01
7.973000D-01           5.103190D-01
2.185000D-01           4.622140D-01
P   1   1.00
2.185000D-01           1.000000D+00
D   1   1.00
8.170000D-01           1.0000000
****
O     0
S   9   1.00
1.172000D+04           7.100000D-04
1.759000D+03           5.470000D-03
4.008000D+02           2.783700D-02
1.137000D+02           1.048000D-01
3.703000D+01           2.830620D-01
1.327000D+01           4.487190D-01
5.025000D+00           2.709520D-01
1.013000D+00           1.545800D-02
3.023000D-01          -2.585000D-03
S   9   1.00
1.172000D+04          -1.600000D-04
1.759000D+03          -1.263000D-03
4.008000D+02          -6.267000D-03
1.137000D+02          -2.571600D-02
3.703000D+01          -7.092400D-02
1.327000D+01          -1.654110D-01
5.025000D+00          -1.169550D-01
1.013000D+00           5.573680D-01
3.023000D-01           5.727590D-01
S   1   1.00
3.023000D-01           1.000000D+00
P   4   1.00
1.770000D+01           4.301800D-02
3.854000D+00           2.289130D-01
1.046000D+00           5.087280D-01
2.753000D-01           4.605310D-01
P   1   1.00
2.753000D-01           1.000000D+00
D   1   1.00
1.185000D+00           1.0000000
****
Fe     0
S   20   1.00
4.316265D+06           8.048803D-06
6.463424D+05           6.258306D-05
1.470897D+05           3.290239D-04
4.166152D+04           1.387355D-03
1.359077D+04           5.023256D-03
4.905750D+03           1.610140D-02
1.912746D+03           4.590034D-02
7.926043D+02           1.136154D-01
3.448065D+02           2.283869D-01
1.558999D+02           3.221159D-01
7.223091D+01           2.383661D-01
3.272506D+01           7.404667D-02
1.566762D+01           9.214197D-02
7.503483D+00           9.339790D-02
3.312223D+00           1.573965D-02
1.558471D+00          -4.186682D-04
6.839140D-01           5.376318D-05
1.467570D-01          -3.816654D-05
7.058300D-02           4.319603D-05
3.144900D-02          -3.401019D-06
S   20   1.00
4.316265D+06          -4.155954D-06
6.463424D+05          -3.231401D-05
1.470897D+05          -1.699525D-04
4.166152D+04          -7.171369D-04
1.359077D+04          -2.603625D-03
4.905750D+03          -8.399109D-03
1.912746D+03          -2.434109D-02
7.926043D+02          -6.251948D-02
3.448065D+02          -1.365929D-01
1.558999D+02          -2.312707D-01
7.223091D+01          -2.383734D-01
3.272506D+01           3.123837D-02
1.566762D+01           5.086818D-01
7.503483D+00           4.987695D-01
3.312223D+00           9.033552D-02
1.558471D+00          -6.005337D-03
6.839140D-01           2.312454D-04
1.467570D-01          -5.643680D-04
7.058300D-02           4.992260D-04
3.144900D-02          -1.015293D-04
S   20   1.00
4.316265D+06           9.532178D-07
6.463424D+05           7.414605D-06
1.470897D+05           3.898393D-05
4.166152D+04           1.647152D-04
1.359077D+04           5.985980D-04
4.905750D+03           1.942390D-03
1.912746D+03           5.687237D-03
7.926043D+02           1.501329D-02
3.448065D+02           3.452455D-02
1.558999D+02           6.495820D-02
7.223091D+01           7.716194D-02
3.272506D+01          -1.873411D-02
1.566762D+01          -3.009185D-01
7.503483D+00          -4.554661D-01
3.312223D+00           1.286463D-01

   19   -3553.4742434152      7.26e-09  Convergence criterion met
 Total energy in the final basis set =    -3553.4742434152
   16   -3553.5444677830      4.33e-09  Convergence criterion met
 Total energy in the final basis set =    -3553.5444677830
   16   -3553.5721769496      5.14e-09  Convergence criterion met
 Total energy in the final basis set =    -3553.5721769496
   16   -3553.5795791954      6.00e-09  Convergence criterion met
 Total energy in the final basis set =    -3553.5795791954
   16   -3553.5881461768      7.38e-09  Convergence criterion met
 Total energy in the final basis set =    -3553.5881461768
   16   -3553.5902558804      8.18e-09  Convergence criterion met
 Total energy in the final basis set =    -3553.5902558804
   16   -3553.5923722947      8.33e-09  Convergence criterion met
 Total energy in the final basis set =    -3553.5923722947
   16   -3553.5939584470      7.88e-09  Convergence criterion met
   17   -3553.5992898302      3.23e-09  Convergence criterion met
 Total energy in the final basis set =    -3553.5992898302
   17   -3553.5992928248      3.31e-09  Convergence criterion met
 Total energy in the final basis set =    -3553.5992928248
   17   -3553.5992951752      3.53e-09  Convergence criterion met
 Total energy in the final basis set =    -3553.5992951752
   17   -3553.5992971506      3.58e-09  Convergence criterion met
 Total energy in the final basis set =    -3553.5992971506
   17   -3553.5992982633      3.89e-09  Convergence criterion met
 Total energy in the final basis set =    -3553.5992982633
   17   -3553.5992993372      3.56e-09  Convergence criterion met
 Total energy in the final basis set =    -3553.5992993372
   17   -3553.5993001338      3.86e-09  Convergence criterion met
 Total energy in the final basis set =    -3553.5993001338

                    Orbital Energies (a.u.)
 --------------------------------------------------------------

 Alpha MOs
 -- Occupied --
******** -30.1201 -25.9738 -25.9717 -25.9704 -19.1108 -19.1042 -19.0980
-19.0978 -19.0960 -19.0958 -19.0947 -19.0946 -19.0936 -14.3413 -14.3408
-14.3360 -14.3329 -14.3030 -14.2961 -10.2776 -10.2766 -10.2750 -10.2728
-10.2445 -10.2144 -10.2138 -10.2104 -10.2101 -10.2099 -10.2086 -10.2073
-10.2053 -10.1969 -10.1948 -10.1947 -10.1938 -10.1820 -10.1761 -10.1759
-10.1751 -10.1750 -10.1728 -10.1719 -10.1717 -10.1699 -10.1675 -10.1669
-10.1647 -10.1641 -10.1634 -10.1633 -10.1512  -3.6022  -2.3792  -2.3760
 -2.3720  -1.0272  -1.0208  -1.0205  -1.0175  -1.0014  -0.9966  -0.9930
 -0.9581  -0.9573  -0.9112  -0.9109  -0.9082  -0.9080  -0.8915  -0.8882
 -0.8222  -0.8199  -0.7846  -0.7815  -0.7659  -0.7585  -0.7529  -0.7299
 -0.7231  -0.7195  -0.7090  -0.7018  -0.6976  -0.6873  -0.6645  -0.6582
 -0.6319  -0.6212  -0.6016  -0.5985  -0.5887  -0.5850  -0.5811  -0.5774
 -0.5736  -0.5674  -0.5644  -0.5618  -0.5577  -0.5518  -0.5403  -0.5095
 -0.5076  -0.4950  -0.4857  -0.4839  -0.4806  -0.4766  -0.4730  -0.4717
 -0.4686  -0.4670  -0.4640  -0.4598  -0.4584  -0.4537  -0.4520  -0.4478
 -0.4439  -0.4424  -0.4409  -0.4339  -0.4306  -0.4264  -0.4249  -0.4215
 -0.4157  -0.4141  -0.4118  -0.4111  -0.4085  -0.4047  -0.4043  -0.4006
 -0.3981  -0.3972  -0.3952  -0.3943  -0.3909  -0.3888  -0.3849  -0.3828
 -0.3784  -0.3772  -0.3751  -0.3734  -0.3696  -0.3664  -0.3656  -0.3644
 -0.3599  -0.3583  -0.3548  -0.3498  -0.3478  -0.3453  -0.3435  -0.3367
 -0.3362  -0.3348  -0.3338  -0.3312  -0.3269  -0.3247  -0.3202  -0.3167
 -0.3147  -0.3130  -0.3115  -0.3104  -0.2970  -0.2957  -0.2824  -0.2650
 -0.2613  -0.2544  -0.2510  -0.2504  -0.2469  -0.2464  -0.2450  -0.2433
 -0.2367  -0.2234  -0.2188  -0.2158  -0.2128  -0.2116  -0.2103  -0.1974
 -0.1695  -0.1681

 Beta MOs
 -- Occupied --
******** -30.0273 -25.8956 -25.8944 -25.8939 -19.1085 -19.1015 -19.0978
-19.0960 -19.0946 -19.0937 -19.0917 -19.0896 -19.0888 -14.3411 -14.3408
-14.3360 -14.3329 -14.3030 -14.2961 -10.2776 -10.2766 -10.2750 -10.2728
-10.2445 -10.2143 -10.2138 -10.2104 -10.2101 -10.2100 -10.2086 -10.2073
-10.2053 -10.1970 -10.1948 -10.1947 -10.1938 -10.1819 -10.1761 -10.1758
-10.1750 -10.1750 -10.1728 -10.1718 -10.1716 -10.1698 -10.1675 -10.1669
-10.1644 -10.1638 -10.1631 -10.1631 -10.1509  -3.3859  -2.1488  -2.1475
 -2.1473  -1.0239  -1.0205  -1.0204  -1.0174  -0.9957  -0.9891  -0.9859
 -0.9485  -0.9480  -0.9112  -0.9096  -0.9081  -0.9080  -0.8915  -0.8882
 -0.8211  -0.8187  -0.7844  -0.7814  -0.7654  -0.7583  -0.7525  -0.7294
 -0.7222  -0.7186  -0.7080  -0.7004  -0.6964  -0.6868  -0.6641  -0.6579
 -0.6317  -0.6210  -0.6008  -0.5978  -0.5877  -0.5841  -0.5799  -0.5769
 -0.5725  -0.5668  -0.5640  -0.5606  -0.5576  -0.5503  -0.5383  -0.5075
 -0.5040  -0.4913  -0.4834  -0.4817  -0.4798  -0.4715  -0.4710  -0.4694
 -0.4670  -0.4638  -0.4585  -0.4568  -0.4526  -0.4510  -0.4462  -0.4451
 -0.4420  -0.4406  -0.4338  -0.4257  -0.4246  -0.4230  -0.4204  -0.4175
 -0.4118  -0.4088  -0.4077  -0.4045  -0.4032  -0.4016  -0.3962  -0.3957
 -0.3948  -0.3934  -0.3899  -0.3869  -0.3828  -0.3793  -0.3778  -0.3751
 -0.3713  -0.3686  -0.3653  -0.3634  -0.3618  -0.3585  -0.3578  -0.3490
 -0.3456  -0.3453  -0.3420  -0.3362  -0.3360  -0.3343  -0.3336  -0.3270
 -0.3264  -0.3200  -0.3188  -0.3164  -0.3142  -0.3116  -0.3106  -0.2968
 -0.2950  -0.2862  -0.2748  -0.2677  -0.2581  -0.2532  -0.2509  -0.2501
 -0.2488  -0.2463  -0.2446  -0.2446  -0.2418  -0.2330  -0.2158  -0.2127
 -0.2114  -0.2104  -0.1999  -0.1719  -0.1689

          Ground-State Mulliken Net Atomic Charges

     Atom                 Charge (a.u.)    Spin (a.u.)
  --------------------------------------------------------
      1 C                     0.121777       0.001793
      2 C                    -0.061020       0.021094
      3 C                    -0.026825       0.006627
      4 C                     0.013483       0.005242
      5 C                    -0.039623       0.011654
      6 C                     0.137826       0.005413
      7 H                    -0.054694      -0.000438
      8 O                    -0.452021       0.128496
      9 C                     0.116978       0.000190
     10 O                    -0.353434       0.002259
     11 N                    -0.141423       0.000223
     12 H                     0.101721       0.000001
     13 C                     0.090355      -0.000006
     14 H                     0.012984       0.000003
     15 H                     0.017436      -0.000008
     16 C                    -0.025367       0.000032
     17 H                     0.008675       0.000013
     18 H                     0.014164      -0.000002
     19 C                     0.068306      -0.000010
     20 H                     0.022441      -0.000047
     21 H                     0.001424       0.000000
     22 N                    -0.230279       0.000008
     23 H                     0.086389      -0.000003
     24 C                    -0.012848       0.000046
     25 H                     0.014859       0.000158
     26 H                     0.001251       0.000009
     27 C                     0.042773       0.000027
     28 H                     0.005165       0.000010
     29 H                     0.043624      -0.000123
     30 C                     0.011530       0.000227
     31 H                    -0.004077       0.000009
     32 H                    -0.011497       0.000064
     33 C                     0.092072      -0.000281
     34 H                     0.031467       0.000246
     35 H                     0.020600       0.000363
     36 N                    -0.134789       0.008036
     37 H                     0.110894       0.000797
     38 C                     0.239201       0.004408
     39 O                    -0.370082       0.057980
     40 C                    -0.112107       0.018474
     41 H                    -0.031227      -0.000661
     42 C                     0.068865       0.006518
     43 H                     0.055809      -0.000007
     44 H                     0.012424       0.000113
     45 C                     0.091350       0.000281
     46 O                    -0.361429       0.000034
     47 N                    -0.124203       0.000014
     48 C                     0.101856      -0.000029
     49 H                     0.129902      -0.000199
     50 C                    -0.040607       0.000023
     51 H                     0.021866       0.000007
     52 H                     0.009799      -0.000010
     53 C                    -0.020073       0.000007
     54 H                    -0.001650      -0.000003
     55 H                     0.016213       0.000003
     56 C                     0.085229      -0.000002
     57 H                    -0.006371       0.000003
     58 H                     0.006529       0.000011
     59 H                     0.001798       0.000001
     60 H                    -0.006377       0.000000
     61 C                     0.171562       0.000359
     62 C                    -0.020917       0.005396
     63 O                    -0.360033       0.000448
     64 C                    -0.035302       0.005512
     65 C                    -0.052826       0.020306
     66 C                    -0.033935       0.011412
     67 C                     0.135944       0.000425
     68 C                     0.139901       0.005310
     69 H                    -0.047077      -0.000073
     70 O                    -0.457364       0.144620
     71 C                     0.110638      -0.000566
     72 O                    -0.398728       0.070333
     73 H                    -0.048042      -0.000054
     74 O                    -0.456518       0.153698
     75 H                    -0.067877      -0.000402
     76 O                    -0.443657       0.122096
     77 Fe                    0.530134       4.180503
     78 N                    -0.254211       0.000017
     79 H                     0.085160      -0.000002
     80 N                    -0.134887       0.001200
     81 H                     0.109379      -0.000003
     82 C                     0.090396      -0.000008
     83 H                     0.021958       0.000004
     84 H                     0.019657       0.000035
     85 C                     0.006212       0.000108
     86 H                     0.000706       0.000045
     87 H                     0.005379      -0.000008
     88 C                     0.059464       0.000023
     89 H                     0.009487       0.000005
     90 H                     0.010040       0.000032
     91 H                    -0.038300       0.000044
     92 H                    -0.063359       0.000096
  --------------------------------------------------------
  Sum of atomic charges =    -2.000000

                    Cartesian Multipole Moments
 -----------------------------------------------------------------
    Charge (ESU x 10^10)
                -9.6064
    Dipole Moment (Debye)
         X      -3.9542      Y       7.8525      Z      20.3598
       Tot      22.1770
    Quadrupole Moments (Debye-Ang)
        XX    -435.7006     XY      17.7778     YY    -328.9141
        XZ      31.4910     YZ      -0.0575     ZZ    -340.3364

 Final energy is -3553.599300133787
	**  OPTIMIZATION CONVERGED  **

             Standard Nuclear Orientation (Angstroms)
    I     Atom           X                Y                Z
 ----------------------------------------------------------------
    1      C       3.1636631851    -1.4843723088    -1.3131579910
    2      C       4.4975791227    -1.8611548412    -1.1718231070
    3      C       5.3908478767    -1.8313608312    -2.2710095747
    4      C       4.9050336158    -1.4382075063    -3.5284784523
    5      C       3.5649381948    -1.0700639364    -3.6971866407
    6      C       2.6802943567    -1.0528871965    -2.6007518656
    7      H       4.8368524728    -2.1036430437    -0.1630256902
    8      O       1.4292083940    -0.6330362883    -2.6486288280
    9      C       6.8531577127    -2.0124749828    -2.0787976729
   10      O       7.6910582330    -1.5679470704    -2.8793147008
   11      N       7.2421659252    -2.6659944640    -0.9308089087
   12      H       6.4815921022    -2.9895044433    -0.3438701157
   13      C       8.4248878142    -2.2478227927    -0.1811095919
   14      H       8.9021750128    -3.1309176520     0.2715435616
   15      H       9.1331993175    -1.8157220895    -0.9026966926
   16      C       8.0402983508    -1.2288641942     0.9032445865
   17      H       8.8814308653    -1.1017679631     1.6071855483
   18      H       7.2000201140    -1.6462170403     1.4858616209
   19      C       7.6406062981     0.1401719423     0.3244879160
   20      H       7.0465206202    -0.0004255770    -0.5921593540
   21      H       8.5579856653     0.6739571190     0.0185882463
   22      N       6.8600627980     1.0128564985     1.2016026454
   23      H       7.2908894351     1.0416000266     2.1290206886
   24      C       4.6601238749     1.7008108382     2.1088908465
   25      H       3.6088599539     1.3716135837     2.1842237443
   26      H       5.0445864699     1.7458973151     3.1439129835
   27      C       5.4505019882     0.6390668054     1.3347236281
   28      H       5.2975752699    -0.3481238383     1.8207255684
   29      H       5.0392578582     0.5344139433     0.3167634948
   30      C       4.7367565838     3.0998743191     1.4849838262
   31      H       4.3668355980     3.8546958891     2.1999719517
   32      H       5.7954619711     3.3308792686     1.2883741119
   33      C       3.9647177204     3.2550340284     0.1690478666
   34      H       4.1308451500     2.3893994662    -0.4850110723
   35      H       4.3309880577     4.1482449807    -0.3634164361
   36      N       2.5253455880     3.3991609597     0.3466468521
   37      H       2.1876033018     4.3164935408     0.6165927958
   38      C       1.5908154643     2.5062536223    -0.0793055055
   39      O       1.9746518316     1.3681307541    -0.4986829848
   40      C       0.2134235072     2.9226124887    -0.0206932742
   41      H      -0.0256611832     3.8642063568     0.4752248992
   42      C      -2.2494334912     2.6479108531    -0.3935785194
   43      H      -2.6301985344     2.0556645872     0.4564451206
   44      H      -2.2951705042     3.7121123436    -0.1311634031
   45      C      -3.1304354422     2.4074878530    -1.6092569868
   46      O      -3.4026978464     3.3138808068    -2.4065238716
   47      N      -3.5787678698     1.1363851887    -1.7416469655
   48      C      -4.2853263524     0.6575370812    -2.9209234543
   49      H      -3.2177284375     0.4367416476    -1.0967851828
   50      C      -5.7101924457     0.1926139744    -2.6135922783
   51      H      -3.7090888851    -0.1722115803    -3.3641628903
   52      H      -4.2963872220     1.4877445080    -3.6414960840
   53      C      -6.6264313706     1.3112649991    -2.1175692556
   54      H      -6.1332537788    -0.2473585953    -3.5354161158
   55      H      -5.6705236640    -0.6174990203    -1.8672085418
   56      C      -8.0372046045     0.8141141899    -1.7592847734
   57      H      -6.7114329260     2.0902591879    -2.8972130825
   58      H      -6.1671417832     1.8007451875    -1.2414648074
   59      H      -8.6894784637     1.6842645966    -1.5649791548
   60      H      -8.4601425716     0.2947729240    -2.6384392837
   61      C      -5.3850163640    -1.7789975101     0.9012641442
   62      C      -3.9581042195    -1.3936268492     1.0500883841
   63      O      -5.8503179855    -2.1759709023    -0.1878950290
   64      C      -3.4805517164    -0.6402469483     2.1354648838
   65      C      -3.0584164967    -1.7512639688     0.0143447198
   66      C      -2.1369620506    -0.2513337299     2.1998046703
   67      C      -1.7152953022    -1.3700890773     0.0537450793
   68      C      -1.2364942505    -0.5944994296     1.1764770310
   69      H      -1.7758517802     0.3582708212     3.0325003448
   70      O      -0.8264446649    -1.6422427166    -0.8964931974
   71      C      -0.8055338657     2.1955454203    -0.6108914621
   72      O      -0.6575756087     1.1192270080    -1.3057590142
   73      H       3.1936394318    -0.7503593471    -4.6752750091
   74      O       2.2958209410    -1.4444499659    -0.3079058703
   75      H      -3.4303796337    -2.3214129583    -0.8391500495
   76      O       0.0282849408    -0.2253669832     1.1474867185
   77      Fe      0.7022205435    -0.3438249656    -0.7740998020
   78      N      -8.1537492220    -0.0906538345    -0.6123976995
   79      H      -7.5492619928    -0.9040962296    -0.7586151021
   80      N      -6.1776184014    -1.6823043135     2.0052965125
   81      H      -5.7633612949    -1.3434016218     2.8647090190
   82      C      -7.6299696455    -1.7210422745     1.9388692602
   83      H      -7.8989354616    -2.3227722606     1.0606838493
   84      H      -8.0095546532    -2.2438270013     2.8301728604
   85      C      -8.2610643192    -0.3229303293     1.8538071941
   86      H      -9.3565748703    -0.4453816462     1.7960962955
   87      H      -8.0406810786     0.2265889670     2.7861238045
   88      C      -7.7868200798     0.5184165641     0.6666894760
   89      H      -8.2749793079     1.5068014025     0.7231408544
   90      H      -6.6976865725     0.7078070442     0.7677221817
   91      H      -4.1525059388    -0.3044749121     2.9283021113
   92      H       5.5995769248    -1.3966404714    -4.3693348529
 ----------------------------------------------------------------

 Total job time:  177973.40s(wall), 2839345.40s(cpu)
        *  Thank you very much for using Q-Chem.  Have a nice day.  *
