 Q-Chem 6.0, Q-Chem, Inc., Pleasanton, CA (2022)
 Q-Chem 6.0.2 for Intel X86 EM64T Linux

User input:
--------------------------------------------------------------
$molecule
-2 6
C    3.3137058   -1.2889382   -1.7311538
C    4.6092516   -1.6536602   -1.3681396
C    5.7130237   -1.3931784   -2.2173898
C    5.4822832   -0.7690635   -3.4539996
C    4.1891490   -0.4007354   -3.8427571
C    3.0902354   -0.6240922   -2.9901460
H    4.7364252   -2.0837615   -0.3727523
O    1.8520295   -0.2407581   -3.2455609
C    7.1112092   -1.5925002   -1.7560912
O    8.0744064   -1.0085514   -2.2779170
N    7.2889129   -2.4336737   -0.6802677
H    6.4410063   -2.8569696   -0.3203559
C    8.2831396   -2.1435703    0.3509298
H    8.6675823   -3.0905765    0.7603932
H    9.1199681   -1.6243696   -0.1384668
C    7.6689271   -1.2882351    1.4692442
H    8.3604300   -1.2551174    2.3296040
H    6.7504775   -1.7903467    1.8217429
C    7.3343643    0.1443943    1.0172291
H    6.9206674    0.1235967   -0.0023535
H    8.2724008    0.7248789    0.9593643
N    6.3736020    0.8783837    1.8400867
H    6.6234723    0.7846985    2.8277031
C    4.0136474    1.4431874    2.3385748
H    2.9800198    1.0874374    2.1823916
H    4.1906391    1.4128568    3.4289337
C    4.9792051    0.4702810    1.6516548
H    4.7664645   -0.5604393    2.0073391
H    4.7860467    0.4554952    0.5655898
C    4.1503384    2.8876292    1.8420029
H    3.6544790    3.5810024    2.5433954
H    5.2198746    3.1503121    1.8297848
C    3.5788133    3.1236006    0.4393214
H    3.8735656    2.3176559   -0.2455624
H    3.9789355    4.0675964    0.0330457
N    2.1241937    3.2005751    0.4177764
H    1.7031249    4.0507418    0.7757750
C    1.3010448    2.3410174   -0.2400424
O    1.7982547    1.2976131   -0.7720589
C   -0.0974657    2.6679884   -0.2794250
H   -0.4570009    3.4837738    0.3493233
C   -2.4803884    2.3255550   -0.9001581
H   -2.8070231    1.7497904   -0.0185452
H   -2.6145315    3.3918515   -0.6707507
C   -3.3564795    1.9903715   -2.0943309
O   -3.4857165    2.7715822   -3.0448550
N   -3.9916984    0.7981240   -2.0155539
C   -4.9773986    0.3310346   -2.9783427
H   -3.8019052    0.1985798   -1.2168428
C   -6.3371968    0.1079130   -2.3081581
H   -4.6225653   -0.6071798   -3.4342798
H   -5.0361401    1.0959120   -3.7655059
C   -6.9628804    1.3970769   -1.7710382
H   -7.0178906   -0.3720613   -3.0331161
H   -6.2011766   -0.6131443   -1.4859942
C   -8.1001593    1.1638080   -0.7611856
H   -7.3524236    1.9999986   -2.6104280
H   -6.1788993    2.0068310   -1.2922794
H   -8.5578694    2.1400933   -0.5175838
H   -8.8908792    0.5560544   -1.2360152
C   -5.1542676   -1.7929523    0.9018051
C   -3.9262339   -2.5025470   -1.1206983
O   -6.2345695   -2.2000794    0.4238545
C   -3.8844690   -1.8799438    0.1364611
C   -2.8112893   -2.4970255   -1.9641225
C   -2.6665545   -1.2903459    0.5699290
C   -1.6200093   -1.8612658   -1.5723574
C   -1.5325172   -1.2911259   -0.2456639
H   -2.5752364   -0.7897729    1.5370449
O   -0.5609483   -1.7303994   -2.3452577
C   -0.9984377    2.0112167   -1.1017724
O   -0.7103154    1.1135082   -1.9823013
H    4.0161173    0.0990670   -4.8001829
O    2.2505073   -1.4723587   -0.9584515
H   -2.8626835   -2.9448813   -2.9605131
O   -0.3677196   -0.7538525    0.0935145
Fe    0.7099001   -0.3570411   -1.5731262
N   -7.7441001    0.5091685    0.5021521
H   -7.4452732   -0.4528878    0.3193238
N   -5.1076910   -1.2287593    2.1413656
H   -4.2308884   -0.8237663    2.4452408
C   -6.3055815   -0.8007180    2.8483113
H   -7.1398067   -1.3919275    2.4494747
H   -6.1991940   -1.0495185    3.9162198
C   -6.5847733    0.7021221    2.6944362
H   -7.5259906    0.9258302    3.2262895
H   -5.7834607    1.2704958    3.1996923
C   -6.6801221    1.1868153    1.2453991
H   -6.9059185    2.2675901    1.2534813
H   -5.6838458    1.0866470    0.7654016
H   -4.8650240   -2.9535602   -1.4413228
H    6.3368817   -0.5493978   -4.0964346
$end

$rem
BASIS  =  gen
DFT_D  =  D3_BJ
GUI  =  2
JOB_TYPE  =  Optimization
METHOD  =  B3LYP
SCF_CONVERGENCE  =  8
SOLVENT_METHOD  =  PCM
$end

$pcm
THEORY  CPCM
$end

$solvent
DIELECTRIC  78.39
$end

$van_der_waals
26   2.44
$end

!----------------------------------------------------------------------
! Basis Set Exchange
! Basis set: cc-pVDZ
!----------------------------------------------------------------------

$rem
BASIS GEN
PURECART 11
$end

$basis
H     0
S   4   1.00
1.301000D+01           1.968500D-02
1.962000D+00           1.379770D-01
4.446000D-01           4.781480D-01
1.220000D-01           5.012400D-01
S   1   1.00
1.220000D-01           1.000000D+00
P   1   1.00
7.270000D-01           1.0000000
****
C     0
S   9   1.00
6.665000D+03           6.920000D-04
1.000000D+03           5.329000D-03
2.280000D+02           2.707700D-02
6.471000D+01           1.017180D-01
2.106000D+01           2.747400D-01
7.495000D+00           4.485640D-01
2.797000D+00           2.850740D-01
5.215000D-01           1.520400D-02
1.596000D-01          -3.191000D-03
S   9   1.00
6.665000D+03          -1.460000D-04
1.000000D+03          -1.154000D-03
2.280000D+02          -5.725000D-03
6.471000D+01          -2.331200D-02
2.106000D+01          -6.395500D-02
7.495000D+00          -1.499810D-01
2.797000D+00          -1.272620D-01
5.215000D-01           5.445290D-01
1.596000D-01           5.804960D-01
S   1   1.00
1.596000D-01           1.000000D+00
P   4   1.00
9.439000D+00           3.810900D-02
2.002000D+00           2.094800D-01
5.456000D-01           5.085570D-01
1.517000D-01           4.688420D-01
P   1   1.00
1.517000D-01           1.000000D+00
D   1   1.00
5.500000D-01           1.0000000
****
N     0
S   9   1.00
9.046000D+03           7.000000D-04
1.357000D+03           5.389000D-03
3.093000D+02           2.740600D-02
8.773000D+01           1.032070D-01
2.856000D+01           2.787230D-01
1.021000D+01           4.485400D-01
3.838000D+00           2.782380D-01
7.466000D-01           1.544000D-02
2.248000D-01          -2.864000D-03
S   9   1.00
9.046000D+03          -1.530000D-04
1.357000D+03          -1.208000D-03
3.093000D+02          -5.992000D-03
8.773000D+01          -2.454400D-02
2.856000D+01          -6.745900D-02
1.021000D+01          -1.580780D-01
3.838000D+00          -1.218310D-01
7.466000D-01           5.490030D-01
2.248000D-01           5.788150D-01
S   1   1.00
2.248000D-01           1.000000D+00
P   4   1.00
1.355000D+01           3.991900D-02
2.917000D+00           2.171690D-01
7.973000D-01           5.103190D-01
2.185000D-01           4.622140D-01
P   1   1.00
2.185000D-01           1.000000D+00
D   1   1.00
8.170000D-01           1.0000000
****
O     0
S   9   1.00
1.172000D+04           7.100000D-04
1.759000D+03           5.470000D-03
4.008000D+02           2.783700D-02
1.137000D+02           1.048000D-01
3.703000D+01           2.830620D-01
1.327000D+01           4.487190D-01
5.025000D+00           2.709520D-01
1.013000D+00           1.545800D-02
3.023000D-01          -2.585000D-03
S   9   1.00
1.172000D+04          -1.600000D-04
1.759000D+03          -1.263000D-03
4.008000D+02          -6.267000D-03
1.137000D+02          -2.571600D-02
3.703000D+01          -7.092400D-02
1.327000D+01          -1.654110D-01
5.025000D+00          -1.169550D-01
1.013000D+00           5.573680D-01
3.023000D-01           5.727590D-01
S   1   1.00
3.023000D-01           1.000000D+00
P   4   1.00
1.770000D+01           4.301800D-02
3.854000D+00           2.289130D-01
1.046000D+00           5.087280D-01
2.753000D-01           4.605310D-01
P   1   1.00
2.753000D-01           1.000000D+00
D   1   1.00
1.185000D+00           1.0000000
****
Fe     0
S   20   1.00
4.316265D+06           8.048803D-06
6.463424D+05           6.258306D-05
1.470897D+05           3.290239D-04
4.166152D+04           1.387355D-03
1.359077D+04           5.023256D-03
4.905750D+03           1.610140D-02
1.912746D+03           4.590034D-02
7.926043D+02           1.136154D-01
3.448065D+02           2.283869D-01
1.558999D+02           3.221159D-01
7.223091D+01           2.383661D-01
3.272506D+01           7.404667D-02
1.566762D+01           9.214197D-02
7.503483D+00           9.339790D-02
3.312223D+00           1.573965D-02
1.558471D+00          -4.186682D-04
6.839140D-01           5.376318D-05
1.467570D-01          -3.816654D-05
7.058300D-02           4.319603D-05
3.144900D-02          -3.401019D-06
S   20   1.00
4.316265D+06          -4.155954D-06
6.463424D+05          -3.231401D-05
1.470897D+05          -1.699525D-04
4.166152D+04          -7.171369D-04
1.359077D+04          -2.603625D-03
4.905750D+03          -8.399109D-03
1.912746D+03          -2.434109D-02
7.926043D+02          -6.251948D-02
3.448065D+02          -1.365929D-01
1.558999D+02          -2.312707D-01
7.223091D+01          -2.383734D-01
3.272506D+01           3.123837D-02
1.566762D+01           5.086818D-01
7.503483D+00           4.987695D-01
3.312223D+00           9.033552D-02
1.558471D+00          -6.005337D-03
6.839140D-01           2.312454D-04
1.467570D-01          -5.643680D-04
7.058300D-02           4.992260D-04
3.144900D-02          -1.015293D-04
S   20   1.00
4.316265D+06           9.532178D-07
6.463424D+05           7.414605D-06
1.470897D+05           3.898393D-05
4.166152D+04           1.647152D-04
1.359077D+04           5.985980D-04
4.905750D+03           1.942390D-03
1.912746D+03           5.687237D-03
7.926043D+02           1.501329D-02
3.448065D+02           3.452455D-02
1.558999D+02           6.495820D-02
7.223091D+01           7.716194D-02
3.272506D+01          -1.873411D-02
1.566762D+01          -3.009185D-01
7.503483D+00          -4.554661D-01
3.312223D+00           1.286463D-01
1.558471D+00           7.183316D-01

   21   -3553.5990293001      5.42e-09  Convergence criterion met
 Total energy in the final basis set =    -3553.5990293001
   17   -3553.5990471573      3.18e-09  Convergence criterion met
 Total energy in the final basis set =    -3553.5990471573
   16   -3553.5990628360      9.07e-09  Convergence criterion met
 Total energy in the final basis set =    -3553.5990628360
   16   -3553.5990818935      9.96e-09  Convergence criterion met
 Total energy in the final basis set =    -3553.5990818935
   16   -3553.5991020566      9.87e-09  Convergence criterion met
 Total energy in the final basis set =    -3553.5991020566
   16   -3553.5991231510      9.02e-09  Convergence criterion met
 Total energy in the final basis set =    -3553.5991231510
   16   -3553.5991368030      9.54e-09  Convergence criterion met
 Total energy in the final basis set =    -3553.5991368030
   16   -3553.5991535390      9.18e-09  Convergence criterion met
   17   -3553.5993633171      3.67e-09  Convergence criterion met
 Total energy in the final basis set =    -3553.5993633171
   17   -3553.5993648043      3.51e-09  Convergence criterion met
 Total energy in the final basis set =    -3553.5993648043
   17   -3553.5993661235      3.62e-09  Convergence criterion met
 Total energy in the final basis set =    -3553.5993661235
   17   -3553.5993672052      3.82e-09  Convergence criterion met
 Total energy in the final basis set =    -3553.5993672052
   17   -3553.5993683591      3.93e-09  Convergence criterion met
 Total energy in the final basis set =    -3553.5993683591
   17   -3553.5993695301      4.05e-09  Convergence criterion met
 Total energy in the final basis set =    -3553.5993695301
   17   -3553.5993702798      4.06e-09  Convergence criterion met
 Total energy in the final basis set =    -3553.5993702798

                    Orbital Energies (a.u.)
 --------------------------------------------------------------

 Alpha MOs
 -- Occupied --
******** -30.1212 -25.9752 -25.9726 -25.9712 -19.1116 -19.1065 -19.0981
-19.0970 -19.0968 -19.0947 -19.0946 -19.0945 -19.0922 -14.3414 -14.3411
-14.3386 -14.3328 -14.3029 -14.2951 -10.2775 -10.2768 -10.2753 -10.2727
-10.2456 -10.2148 -10.2139 -10.2106 -10.2105 -10.2096 -10.2088 -10.2071
-10.2051 -10.1968 -10.1950 -10.1944 -10.1936 -10.1828 -10.1762 -10.1754
-10.1749 -10.1724 -10.1716 -10.1714 -10.1703 -10.1700 -10.1698 -10.1683
-10.1671 -10.1644 -10.1629 -10.1629 -10.1498  -3.6032  -2.3811  -2.3767
 -2.3727  -1.0277  -1.0206  -1.0203  -1.0174  -1.0014  -0.9963  -0.9937
 -0.9581  -0.9579  -0.9113  -0.9110  -0.9100  -0.9080  -0.8914  -0.8874
 -0.8222  -0.8197  -0.7847  -0.7813  -0.7667  -0.7588  -0.7532  -0.7295
 -0.7233  -0.7193  -0.7067  -0.7012  -0.6983  -0.6881  -0.6671  -0.6584
 -0.6322  -0.6219  -0.6019  -0.5985  -0.5892  -0.5860  -0.5840  -0.5748
 -0.5733  -0.5703  -0.5652  -0.5589  -0.5545  -0.5516  -0.5399  -0.5112
 -0.5075  -0.4957  -0.4871  -0.4855  -0.4786  -0.4741  -0.4722  -0.4714
 -0.4685  -0.4659  -0.4636  -0.4617  -0.4581  -0.4563  -0.4514  -0.4469
 -0.4428  -0.4422  -0.4400  -0.4351  -0.4320  -0.4290  -0.4259  -0.4210
 -0.4170  -0.4140  -0.4134  -0.4104  -0.4097  -0.4058  -0.4048  -0.4010
 -0.3981  -0.3973  -0.3953  -0.3940  -0.3907  -0.3896  -0.3861  -0.3839
 -0.3808  -0.3771  -0.3752  -0.3717  -0.3700  -0.3666  -0.3656  -0.3627
 -0.3600  -0.3579  -0.3544  -0.3520  -0.3461  -0.3451  -0.3423  -0.3379
 -0.3363  -0.3343  -0.3330  -0.3301  -0.3258  -0.3248  -0.3202  -0.3186
 -0.3148  -0.3132  -0.3114  -0.3099  -0.2967  -0.2940  -0.2830  -0.2657
 -0.2626  -0.2554  -0.2522  -0.2497  -0.2469  -0.2466  -0.2436  -0.2427
 -0.2408  -0.2231  -0.2190  -0.2155  -0.2132  -0.2116  -0.2098  -0.1968
 -0.1688  -0.1676

 Beta MOs
 -- Occupied --
******** -30.0284 -25.8969 -25.8954 -25.8948 -19.1092 -19.1039 -19.0968
-19.0947 -19.0946 -19.0938 -19.0928 -19.0894 -19.0877 -14.3411 -14.3411
-14.3386 -14.3328 -14.3029 -14.2951 -10.2775 -10.2768 -10.2753 -10.2727
-10.2457 -10.2149 -10.2138 -10.2106 -10.2105 -10.2096 -10.2088 -10.2072
-10.2051 -10.1968 -10.1950 -10.1944 -10.1936 -10.1826 -10.1762 -10.1753
-10.1749 -10.1724 -10.1716 -10.1713 -10.1703 -10.1700 -10.1697 -10.1680
-10.1671 -10.1641 -10.1628 -10.1627 -10.1495  -3.3869  -2.1502  -2.1482
 -2.1480  -1.0242  -1.0203  -1.0201  -1.0173  -0.9957  -0.9891  -0.9865
 -0.9489  -0.9482  -0.9109  -0.9101  -0.9098  -0.9080  -0.8914  -0.8873
 -0.8211  -0.8185  -0.7845  -0.7812  -0.7662  -0.7586  -0.7529  -0.7290
 -0.7224  -0.7184  -0.7058  -0.6997  -0.6969  -0.6877  -0.6668  -0.6581
 -0.6320  -0.6217  -0.6011  -0.5977  -0.5883  -0.5854  -0.5831  -0.5742
 -0.5722  -0.5698  -0.5645  -0.5581  -0.5535  -0.5501  -0.5380  -0.5088
 -0.5038  -0.4922  -0.4849  -0.4818  -0.4778  -0.4712  -0.4710  -0.4689
 -0.4670  -0.4630  -0.4586  -0.4576  -0.4538  -0.4477  -0.4464  -0.4444
 -0.4419  -0.4400  -0.4350  -0.4311  -0.4257  -0.4225  -0.4212  -0.4179
 -0.4105  -0.4091  -0.4085  -0.4051  -0.4022  -0.3996  -0.3988  -0.3962
 -0.3951  -0.3931  -0.3904  -0.3871  -0.3835  -0.3813  -0.3786  -0.3761
 -0.3739  -0.3683  -0.3656  -0.3632  -0.3598  -0.3575  -0.3564  -0.3481
 -0.3456  -0.3445  -0.3424  -0.3363  -0.3361  -0.3341  -0.3329  -0.3268
 -0.3257  -0.3201  -0.3193  -0.3166  -0.3140  -0.3115  -0.3092  -0.2960
 -0.2935  -0.2865  -0.2754  -0.2680  -0.2591  -0.2551  -0.2532  -0.2492
 -0.2482  -0.2451  -0.2440  -0.2428  -0.2416  -0.2387  -0.2154  -0.2126
 -0.2115  -0.2098  -0.1991  -0.1712  -0.1680

          Ground-State Mulliken Net Atomic Charges

     Atom                 Charge (a.u.)    Spin (a.u.)
  --------------------------------------------------------
      1 C                     0.122464       0.000963
      2 C                    -0.061625       0.022088
      3 C                    -0.026637       0.005909
      4 C                     0.013396       0.006278
      5 C                    -0.039285       0.010728
      6 C                     0.138391       0.006564
      7 H                    -0.055098      -0.000510
      8 O                    -0.451612       0.125670
      9 C                     0.115087       0.000214
     10 O                    -0.353215       0.002158
     11 N                    -0.141713       0.000192
     12 H                     0.101699       0.000004
     13 C                     0.090174      -0.000008
     14 H                     0.013001       0.000002
     15 H                     0.017464      -0.000007
     16 C                    -0.025731       0.000028
     17 H                     0.008685       0.000011
     18 H                     0.014071      -0.000001
     19 C                     0.068919      -0.000010
     20 H                     0.022398      -0.000046
     21 H                     0.001018       0.000000
     22 N                    -0.229402       0.000009
     23 H                     0.086142      -0.000002
     24 C                    -0.011744       0.000038
     25 H                     0.015246       0.000176
     26 H                     0.000396       0.000013
     27 C                     0.042782       0.000036
     28 H                     0.004910       0.000008
     29 H                     0.044402      -0.000153
     30 C                     0.011928       0.000226
     31 H                    -0.004457       0.000006
     32 H                    -0.012310       0.000062
     33 C                     0.091683      -0.000239
     34 H                     0.032235       0.000251
     35 H                     0.020336       0.000334
     36 N                    -0.134607       0.007925
     37 H                     0.110750       0.000861
     38 C                     0.236245       0.004240
     39 O                    -0.372942       0.060678
     40 C                    -0.107940       0.019152
     41 H                    -0.033575      -0.000692
     42 C                     0.050157       0.006428
     43 H                     0.054513       0.000307
     44 H                     0.029032      -0.000258
     45 C                     0.095343       0.000119
     46 O                    -0.363298       0.000026
     47 N                    -0.129866       0.000023
     48 C                     0.109106      -0.000001
     49 H                     0.140779      -0.000110
     50 C                    -0.037128       0.000028
     51 H                     0.018108      -0.000053
     52 H                     0.009717      -0.000004
     53 C                    -0.021691       0.000012
     54 H                     0.001851       0.000003
     55 H                     0.012079       0.000013
     56 C                     0.082879      -0.000005
     57 H                    -0.005297       0.000000
     58 H                     0.009415       0.000009
     59 H                     0.001849       0.000004
     60 H                    -0.002970       0.000000
     61 C                     0.180579      -0.000060
     62 C                     0.021472       0.001383
     63 O                    -0.367745       0.002262
     64 C                    -0.059348       0.008779
     65 C                    -0.025445       0.014412
     66 C                    -0.086334       0.016648
     67 C                     0.140113       0.001380
     68 C                     0.128979       0.004422
     69 H                    -0.052954      -0.000106
     70 O                    -0.441986       0.128403
     71 C                     0.125056      -0.000895
     72 O                    -0.395508       0.067368
     73 H                    -0.048598      -0.000009
     74 O                    -0.456003       0.157270
     75 H                    -0.045678      -0.000192
     76 O                    -0.457214       0.135200
     77 Fe                    0.524794       4.183015
     78 N                    -0.256306       0.000042
     79 H                     0.085185       0.000041
     80 N                    -0.136857       0.000580
     81 H                     0.112867      -0.000027
     82 C                     0.091854      -0.000037
     83 H                     0.020313      -0.000006
     84 H                     0.018790       0.000018
     85 C                     0.005559       0.000060
     86 H                     0.002217       0.000024
     87 H                     0.006616      -0.000003
     88 C                     0.043071       0.000022
     89 H                     0.011542       0.000006
     90 H                     0.016058      -0.000021
     91 H                    -0.057923       0.000276
     92 H                    -0.063676       0.000049
  --------------------------------------------------------
  Sum of atomic charges =    -2.000000

                    Cartesian Multipole Moments
 -----------------------------------------------------------------
    Charge (ESU x 10^10)
                -9.6064
    Dipole Moment (Debye)
         X      -4.4358      Y       8.0656      Z      24.8894
       Tot      26.5370
    Quadrupole Moments (Debye-Ang)
        XX    -475.5861     XY      -5.2520     YY    -324.0148
        XZ      49.3198     YZ       8.1305     ZZ    -355.5610

 Final energy is -3553.599370279790
	**  OPTIMIZATION CONVERGED  **

             Standard Nuclear Orientation (Angstroms)
    I     Atom           X                Y                Z
 ----------------------------------------------------------------
    1      C       3.3366900439    -1.2611271804    -1.7357199953
    2      C       4.6526781718    -1.6048935290    -1.4348803997
    3      C       5.7138898695    -1.3066736817    -2.3246995491
    4      C       5.4186092149    -0.6705751381    -3.5410564974
    5      C       4.1017104499    -0.3294098271    -3.8715025168
    6      C       3.0438757913    -0.5860910967    -2.9763035821
    7      H       4.8350243455    -2.0436806452    -0.4524259403
    8      O       1.7901816046    -0.2226326736    -3.1701589267
    9      C       7.1313456437    -1.4751759510    -1.9130380620
   10      O       8.0601360344    -0.8439302958    -2.4415254867
   11      N       7.3642850365    -2.3449775278    -0.8706774898
   12      H       6.5391331376    -2.8127965646    -0.5120871317
   13      C       8.3636876239    -2.0526094822     0.1552559752
   14      H       8.8102037906    -2.9951521018     0.5082724694
   15      H       9.1600858330    -1.4619311320    -0.3205833222
   16      C       7.7241915357    -1.2917581155     1.3274345684
   17      H       8.4179408267    -1.2854940532     2.1865484686
   18      H       6.8268477929    -1.8490379189     1.6492493893
   19      C       7.3344512380     0.1526823022     0.9656361198
   20      H       6.9238792530     0.1810154021    -0.0555826777
   21      H       8.2505349491     0.7696394386     0.9488548930
   22      N       6.3474281438     0.7971559678     1.8317527012
   23      H       6.5983176904     0.6450529930     2.8117016363
   24      C       3.9722969818     1.2343333393     2.3830314717
   25      H       2.9506660359     0.8668008481     2.1839509386
   26      H       4.1458381697     1.1012465707     3.4660634698
   27      C       4.9670341601     0.3605603611     1.6100508670
   28      H       4.7910221992    -0.7046398570     1.8707208824
   29      H       4.7683283941     0.4369858132     0.5279903038
   30      C       4.0712294814     2.7247260962     2.0361636077
   31      H       3.5428144726     3.3273598749     2.7947334597
   32      H       5.1325725648     3.0171908033     2.0708944152
   33      C       3.5187076649     3.0919823410     0.6530547013
   34      H       3.8453104726     2.3670835194    -0.1044151290
   35      H       3.9068627894     4.0798476752     0.3547287077
   36      N       2.0635649767     3.1508626176     0.6032855064
   37      H       1.6244404415     3.9869687384     0.9722517496
   38      C       1.2660832496     2.3019673124    -0.0991941663
   39      O       1.7888810825     1.2743786171    -0.6396412249
   40      C      -0.1310099701     2.6245470806    -0.1763423964
   41      H      -0.5071498075     3.4425983978     0.4399273357
   42      C      -2.4967771477     2.3053593943    -0.8752778882
   43      H      -2.8586026037     1.7747778328     0.0208912337
   44      H      -2.6251983093     3.3824604725    -0.6985869629
   45      C      -3.3347859533     1.9235007898    -2.0824814728
   46      O      -3.4349407856     2.6681280637    -3.0654582223
   47      N      -3.9659385376     0.7307889838    -1.9817023643
   48      C      -4.8975118165     0.2124541348    -2.9715076477
   49      H      -3.8063703145     0.1641136576    -1.1526345151
   50      C      -6.2868537709     0.0028491584    -2.3609985298
   51      H      -4.5112147125    -0.7400408435    -3.3684463896
   52      H      -4.9239110716     0.9418200460    -3.7933605346
   53      C      -6.9555454916     1.3104587008    -1.9294689169
   54      H      -6.9220120126    -0.5281909616    -3.0917288804
   55      H      -6.1802070535    -0.6724402185    -1.4956967004
   56      C      -8.1029473947     1.1220878021    -0.9233310223
   57      H      -7.3416277736     1.8432118114    -2.8167194623
   58      H      -6.1965651913     1.9737432051    -1.4818005481
   59      H      -8.5831261993     2.1032607919    -0.7525393763
   60      H      -8.8751812084     0.4671984903    -1.3645193557
   61      C      -5.1576835293    -1.6980516326     1.0092351621
   62      C      -3.9033819920    -2.5236873598    -0.9510994851
   63      O      -6.2336701225    -2.1142998809     0.5284314843
   64      C      -3.8731139150    -1.8464722922     0.2778403805
   65      C      -2.7783538677    -2.5637312271    -1.7799043516
   66      C      -2.6532348573    -1.2546088555     0.7044425695
   67      C      -1.5886351457    -1.9164842739    -1.4024808221
   68      C      -1.5094696240    -1.3016585238    -0.0953493755
   69      H      -2.5695127127    -0.7155070541     1.6516640027
   70      O      -0.5264354319    -1.8071139477    -2.1727820194
   71      C      -1.0124517968     1.9667531177    -1.0200349462
   72      O      -0.7069053320     1.0581763790    -1.8816561350
   73      H       3.8779363822     0.1778217909    -4.8145394403
   74      O       2.3134064039    -1.4739256864    -0.9155869079
   75      H      -2.8241554032    -3.0501307163    -2.7581593370
   76      O      -0.3410392856    -0.7633218686     0.2344437288
   77      Fe      0.7278578784    -0.3907824177    -1.4405394517
   78      N      -7.7481864954     0.5598582558     0.3843151233
   79      H      -7.4510304932    -0.4129467539     0.2691891503
   80      N      -5.1321104959    -1.0612989838     2.2142540213
   81      H      -4.2537158570    -0.6605191811     2.5203589790
   82      C      -6.3397049100    -0.5573288022     2.8531930749
   83      H      -7.1739268102    -1.1725947173     2.4930696283
   84      H      -6.2551093567    -0.7079851064     3.9407871787
   85      C      -6.6019184355     0.9285398599     2.5594159752
   86      H      -7.5495915951     1.2061082281     3.0527165512
   87      H      -5.8026689667     1.5336929632     3.0231019984
   88      C      -6.6772647610     1.2832950030     1.0726331703
   89      H      -6.8837120006     2.3641312287     0.9840347673
   90      H      -5.6803288188     1.1233395949     0.6122652313
   91      H      -4.8414039318    -2.9802498466    -1.2661543174
   92      H       6.2403248472    -0.4202543433    -4.2144620759
 ----------------------------------------------------------------

 Total job time:  184610.94s(wall), 3016448.49s(cpu)
        *  Thank you very much for using Q-Chem.  Have a nice day.  *
